/*--------------------------------*- C++ -*----------------------------------*\
  =========                 |
  \\      /  F ield         | OpenFOAM: The Open Source CFD Toolbox
   \\    /   O peration     | Website:  https://openfoam.org
    \\  /    A nd           | Version:  9
     \\/     M anipulation  |
\*---------------------------------------------------------------------------*/
FoamFile
{
    format      ascii;
    class       surfaceScalarField;
    location    "1.5535";
    object      phi;
}
// * * * * * * * * * * * * * * * * * * * * * * * * * * * * * * * * * * * * * //

dimensions      [0 3 -1 0 0 0 0];

internalField   nonuniform List<scalar> 
19305
(
-5.88295e-08
-0.000334555
0.000334541
0.0012085
-0.00120851
0.0021777
-0.0021777
-0.00321514
0.00321513
-0.00423671
0.0042367
-0.00520092
0.00520093
-0.00608241
0.00608241
-0.0068511
0.0068511
-0.00749066
0.00749067
-0.00800068
0.00800069
-0.00838897
0.00838896
-0.00866724
0.00866724
-0.00884944
0.00884944
-0.00894986
0.00894986
-0.00898499
0.00898499
-0.0089732
0.0089732
-0.00893925
0.00893925
-0.00891049
0.00891049
-0.00891755
0.00891755
-0.00899154
0.00899154
-0.00915508
0.00915508
-0.00942557
0.00942557
-0.00982152
0.00982152
-0.0103556
0.0103556
-0.0110282
0.0110282
-0.0118246
0.0118246
-0.0127173
0.0127173
-0.0136695
0.0136695
-0.0146391
0.0146391
-0.0155774
0.0155774
-0.0164278
0.0164278
-0.0171404
0.0171404
-0.017682
0.017682
-0.0180264
0.0180264
-0.0181473
0.0181473
-0.0180108
0.0180108
-0.017574
0.017574
-0.0167953
0.0167953
-0.0156301
0.0156301
-0.0140341
0.0140341
-0.0119739
0.0119739
-0.00945368
0.00945368
-0.00655834
0.00655833
-0.00345568
0.00345567
-0.000415117
0.000415124
0.00121159
-0.00121159
0.00277394
-0.00277393
0.00387171
-0.00387171
0.00456241
-0.0045624
0.00503134
-0.00503133
0.00538537
-0.00538537
0.00566906
-0.00566907
0.00590035
-0.00590035
0.00608765
-0.00608765
0.00623641
-0.00623641
0.00635042
-0.00635042
0.00643148
-0.00643148
0.00648083
-0.00648083
0.00649825
-0.00649825
0.00648244
-0.00648244
0.00643169
-0.0064317
0.00634263
-0.00634262
0.00620909
-0.00620909
0.00602073
-0.00602073
0.00576365
-0.00576365
0.00541796
-0.00541795
0.00494726
-0.00494726
0.00428246
-0.00428245
0.00336172
-0.00336171
0.00224452
-0.00224451
-4.66466e-09
-4.51664e-08
0.000558406
-0.000558416
0.00145646
-0.00145647
-0.00235804
0.00235803
-0.00308235
0.00308234
-0.00355331
0.00355331
-0.00378464
0.00378464
-0.00376377
0.00376378
-0.00346671
0.00346671
-0.00289625
0.00289625
-0.00209181
0.0020918
-0.00113747
0.00113746
0.000377588
-0.000377596
0.000558358
-0.00123304
0.00123303
-0.00271902
0.00271903
0.00362361
-0.00362361
0.00423523
-0.00423523
0.00457906
-0.00457906
0.00470743
-0.00470743
0.00462736
-0.00462736
0.00432747
-0.00432747
0.00382816
-0.00382815
0.00319029
-0.00319028
0.00236744
-0.00236743
0.00128366
-0.00128366
-0.000665258
0.00066524
0.000618391
0.00066523
-8.94626e-09
0.00170293
-0.00170294
0.00397568
-0.00397569
-0.00567209
0.00567209
0.00659683
-0.00659683
-0.00720814
0.00720814
-0.00764115
0.00764115
-0.00791049
0.00791049
-0.00802471
0.00802471
-0.00799075
0.00799075
-0.00781487
0.00781487
-0.00750263
0.00750263
-0.00705725
0.00705725
-0.00648576
0.00648575
-0.00579876
0.00579875
-0.0050151
0.00501509
-0.00414536
0.00414535
-0.00318213
0.00318211
-0.00214497
0.00214496
-0.00112701
0.00112701
0.000802783
-0.000802787
-0.000324233
-0.000244432
0.00170293
0.000665222
0.00156485
-0.00156486
0.00279103
-0.00279103
-0.00360365
0.00360365
0.00414523
-0.00414522
-0.00460007
0.00460007
0.00495267
-0.00495267
0.00521121
-0.00521121
0.00539719
-0.00539719
0.00552579
-0.00552579
0.00560545
-0.00560544
0.00564105
-0.00564105
0.00563376
-0.00563376
0.005584
-0.005584
0.00549148
-0.00549148
0.00535295
-0.00535295
0.00516602
-0.00516602
0.0049264
-0.0049264
0.00462889
-0.00462888
0.00424969
-0.00424969
0.00372918
-0.00372918
0.00314635
-0.00314635
0.00257156
-0.00257156
0.00187016
-0.00187017
0.000958649
-0.000958645
-0.000473445
0.000473456
0.000485209
0.000473458
0.00770983
-0.00770982
-0.00350962
0.00350962
0.00248287
-0.00248288
-0.00102675
-0.000779952
0.000473466
-0.00122531
0.00122532
-0.00136127
0.00136129
0.000323756
-0.000323684
3.22278e-09
-0.00567803
0.00567803
0.00473714
-0.00473713
0.00333148
-0.00333146
0.00160897
-0.00160899
-0.0078627
-0.00369696
0.00369696
0.00265912
-0.00265913
-0.00308704
0.00308703
-0.00443644
0.00443644
-0.0061332
0.0061332
-0.00789316
0.00789316
-0.00950231
0.00950232
-0.0107927
0.0107927
-0.0116627
0.0116627
-0.0120458
0.0120458
-0.0118574
0.0118574
-0.0109805
0.0109805
-0.0093074
0.00930739
-0.00673737
0.00673736
-0.00319836
0.00319838
0.00156346
-0.00156343
0.00571925
-0.00571925
0.0085229
-0.0085229
0.0102096
-0.0102096
0.0111044
-0.0111044
0.0111706
-0.0111706
0.0101187
-0.0101187
0.0077386
-0.0077386
-0.0105122
0.00317453
-0.000381545
-0.00908867
-0.000941364
0.000941364
0.000543266
-0.000543266
0.000569691
-0.000569692
0.000529954
-0.000529955
0.000769874
-0.000769874
0.000980059
-0.00098006
0.000898316
-0.000898316
0.00113314
-0.00113314
0.0012507
-0.0012507
0.00118641
-0.00118641
0.00106913
-0.00106913
0.0015901
-0.0015901
0.00175647
-0.00175647
0.00122166
-0.00122166
0.0017207
-0.0017207
0.00163101
-0.00163101
0.00187696
-0.00187695
0.00168783
-0.00168783
0.00168288
-0.00168288
0.00190255
-0.00190255
0.00236203
-0.00236203
0.000922963
-0.000922961
-0.000257824
0.000257826
1.32064e-05
-1.32121e-05
0.000282739
-0.00028274
0.00112131
-0.00112131
-0.000589328
0.000589329
-0.000455968
0.000455969
-0.000377328
0.000377328
-0.00038408
0.00038408
-0.000328528
0.000328529
-0.000135279
0.000135279
-0.0001255
0.000125499
-9.71586e-05
9.71609e-05
-6.01561e-05
6.01595e-05
6.15983e-05
-6.15989e-05
9.58361e-05
-9.58351e-05
0.000122453
-0.000122452
0.000204568
-0.000204569
0.000267321
-0.000267323
0.000332986
-0.000332985
0.000270981
-0.000270979
0.000196804
-0.000196804
8.02089e-05
-8.02062e-05
-2.45158e-05
2.45164e-05
-0.000437121
0.000437122
0.00159245
0.00227542
0.00192876
0.00193911
0.00190989
0.00195798
0.00172978
0.00213809
0.00125733
0.0026034
-0.00123304
-0.00567803
-0.000768671
0.000768657
-0.00167155
0.00167154
0.0026941
-0.00269411
0.00373135
-0.00373136
0.00472759
-0.00472759
0.00565377
-0.00565376
0.00648232
-0.00648232
0.00718737
-0.00718737
0.00776162
-0.00776162
0.00820958
-0.00820958
0.00854112
-0.00854112
0.0087698
-0.0087698
0.00890915
-0.00890915
0.00897479
-0.00897479
0.00898394
-0.00898395
0.00895758
-0.00895758
0.00892188
-0.00892188
0.008907
-0.00890699
0.0089442
-0.0089442
0.00906028
-0.00906027
0.00927535
-0.00927535
0.00960642
-0.00960642
0.0100706
-0.0100706
0.010675
-0.010675
0.0114122
-0.0114122
0.012261
-0.012261
0.0131886
-0.0131886
0.0141552
-0.0141552
0.0151158
-0.0151158
0.0160169
-0.0160169
0.0168035
-0.0168035
0.017434
-0.017434
0.0178803
-0.0178803
0.0181165
-0.0181165
0.0181139
-0.0181139
0.0178324
-0.0178324
0.0172301
-0.0172301
0.0162639
-0.0162639
0.0148887
-0.0148887
0.0130631
-0.0130631
0.0107681
-0.0107681
0.00804343
-0.00804343
0.00501914
-0.00501915
0.0019107
-0.00191071
-0.000447206
0.000447206
-0.00203532
0.00203532
-0.00338539
0.0033854
-0.0042548
0.00425481
-0.00481561
0.00481561
-0.00521871
0.00521872
-0.00553436
0.00553436
-0.00579046
0.00579046
-0.00599897
0.00599897
-0.00616643
0.00616644
-0.00629746
0.00629746
-0.0063947
0.0063947
-0.00645989
0.00645988
-0.00649342
0.00649342
-0.00649442
0.00649442
-0.00646156
0.00646156
-0.00639223
0.00639223
-0.00628194
0.00628194
-0.00612239
0.0061224
-0.00590141
0.00590141
-0.00560276
0.00560276
-0.00520083
0.00520083
-0.00464344
0.00464344
-0.00385399
0.00385399
-0.00283537
0.00283538
0.000506134
-0.00145216
0.00145216
-0.000990529
0.000990513
-0.00192045
0.00192043
0.00275045
-0.00275046
0.00334839
-0.00334839
0.00369917
-0.00369917
0.00380729
-0.00380728
0.00365014
-0.00365014
0.00321337
-0.00321337
0.00251818
-0.00251818
0.0016237
-0.00162371
0.000690147
-0.000690163
-0.000902363
0.00137584
-0.000417147
0.000150535
0.00214892
-0.00214892
-0.00319853
0.00319853
-0.00396778
0.00396778
-0.00443623
0.00443623
-0.00466883
0.00466883
-0.00469424
0.00469424
-0.00450705
0.00450705
-0.00410112
0.00410112
-0.00352817
0.00352818
-0.00280755
0.00280756
-0.00186578
0.0018658
-0.00619395
0.000521854
-0.00619395
-0.00284399
0.00114106
-0.002844
0.00113168
0.00494901
-0.00494902
0.00040287
0.00692913
-0.00692913
0.00744544
-0.00744544
0.00779641
-0.00779641
0.00798597
-0.00798597
0.00802521
-0.00802521
0.00792009
-0.00792009
0.00767557
-0.00767557
0.00729638
-0.00729638
0.0067864
-0.0067864
0.00615588
-0.00615589
0.00541979
-0.0054198
0.00459217
-0.00459218
0.00367906
-0.00367907
0.00266424
-0.00266426
0.00162682
-0.00162683
0.00438333
-0.000238104
0.00438333
0.00326637
-0.000475335
0.00326637
-0.00222398
0.00222398
-0.000337277
-0.000659129
-0.00388536
0.00388537
-0.00021674
-0.00478978
0.00478978
-0.00509183
0.00509183
-0.00531225
0.00531225
-0.005468
0.005468
-0.00557139
0.0055714
-0.00562836
0.00562836
-0.00564234
0.00564234
-0.00561413
0.00561413
-0.00554322
0.00554322
-0.0054278
0.0054278
-0.00526571
0.00526571
-0.00505303
0.00505303
-0.00478598
0.00478599
-0.00445304
0.00445305
-0.00401016
0.00401016
-0.00342959
0.00342959
-0.00287026
0.00287026
-0.00224092
0.00224092
-0.0014471
0.0014471
-0.000570108
-0.00419831
0.00283705
-0.00419832
0.00530364
-0.00530364
9.22464e-05
0.000231658
9.23202e-05
-0.00113287
0.00179808
-0.000514493
0.000233221
0.013007
-0.00529715
0.00172017
-0.000494842
0.00172018
-0.0015641
0.0029254
0.00317304
-0.00174748
0.00142381
-0.00240619
0.00043982
-0.00611059
0.00611059
0.00560541
-0.00227394
0.00084006
-0.000840022
-0.00824424
0.00463772
-0.00463774
-0.00305195
-0.000645014
-0.00305195
-0.000392838
0.00269722
-0.00269723
0.00369462
-0.00369463
0.00526462
-0.00526462
0.00701983
-0.00701983
0.00872862
-0.00872861
0.0101952
-0.0101952
0.0112859
-0.0112859
0.0119196
-0.0119196
0.0120296
-0.0120296
0.0115111
-0.0115111
0.0102508
-0.0102508
0.0081406
-0.00814062
0.00509239
-0.0050924
0.000908954
-0.000908887
-0.00382967
0.00382968
-0.00728472
0.00728472
-0.0094801
0.0094801
-0.0107427
0.0107427
-0.0112616
0.0112616
-0.0107901
0.0107901
-0.00913592
0.00913592
-0.0058745
-0.00571843
0.00571843
0.000434092
-0.0108915
0.00120731
-0.00184656
0.000905196
-0.000672041
0.00067204
-0.000512084
0.000512084
-0.000550827
0.000550826
-0.000596097
0.000596097
-0.000902239
0.000902239
-0.000897091
0.000897091
-0.000987158
0.000987158
-0.00119552
0.00119552
-0.000963099
0.000963098
-0.00128927
0.00128927
-0.00138701
0.00138701
-0.00165486
0.00165486
-0.00156928
0.00156928
-0.00162723
0.00162723
-0.00164839
0.00164839
-0.00176721
0.00176721
-0.00177873
0.00177873
-0.00183016
0.00183016
-0.0013408
0.0013408
-0.00221647
0.00221647
0.00175243
-0.000829464
-0.00224035
0.00224035
0.000477942
-0.000477939
8.50156e-05
-8.50154e-05
-0.000160336
0.000160333
0.00144143
-0.000320123
-0.00065702
0.00065702
0.000870459
-0.000870459
0.000382761
-0.00038276
0.000440444
-0.000440444
0.00036175
-0.00036175
0.000379923
-0.000379923
0.000215456
-0.000215456
0.000110861
-0.000110862
0.000122015
-0.000122014
6.81587e-05
-6.81539e-05
-4.92087e-06
4.91289e-06
-6.3166e-05
6.31688e-05
-0.000107854
0.000107855
-0.000177843
0.000177843
-0.000240199
0.000240197
-0.000293552
0.000293552
-0.000322006
0.000322008
-0.000213445
0.000213446
-0.000127117
0.000127119
-6.99466e-05
6.99479e-05
0.000187259
-0.000187259
-0.00162102
0.00321347
0.000863692
-0.000863691
0.00181254
0.00205533
0.00190372
0.00196415
0.00195606
0.00173284
0.00215643
0.00144066
0.000334477
0.000463016
0.000516382
0.000516208
0.000490881
0.000452844
0.000399912
0.000336264
0.000270959
0.0002089
0.000152159
0.000102552
5.97047e-05
2.49324e-05
-1.04745e-06
-1.5616e-05
-1.73663e-05
-3.4957e-06
2.66549e-05
6.87422e-05
0.000120272
0.000180845
0.000249038
0.0003194
0.000383994
0.000436421
0.000471291
0.00048569
0.000476679
0.000439489
0.000375702
0.000293538
0.000198325
9.0162e-05
-3.3366e-05
-0.000178361
-0.000343894
-0.000531315
-0.000741406
-0.000971046
-0.00120578
-0.00141025
-0.00153921
-0.00154499
-0.000862324
-0.000823734
-0.000611444
-0.000383086
-0.000253193
-0.000187374
-0.000148983
-0.000121397
-9.86102e-05
-7.8788e-05
-6.10555e-05
-4.42859e-05
-2.84031e-05
-1.25882e-05
3.82556e-06
2.08705e-05
3.9464e-05
6.06905e-05
8.67004e-05
0.000119327
0.000160903
0.000217133
0.000303825
0.000428468
0.000526355
0.000792355
0.000392393
0.000266026
0.000145852
2.26531e-05
-0.000113631
-0.000253344
-0.000378077
-0.000468125
-0.000447331
-0.000479499
-0.000344164
-0.000200997
-8.97727e-05
1.31997e-05
0.000120311
0.000226352
0.000299987
0.000382748
0.000501666
0.00097332
0.00880866
0.000332294
0.000237298
0.000155263
7.54775e-05
5.01034e-07
-7.06564e-05
-0.000139304
-0.000206257
-0.00027085
-0.000329873
-0.000378972
-0.000422946
-0.000466313
-0.000517895
-0.000518154
-0.000281711
-0.000189716
-0.000139162
-0.000101044
-7.08127e-05
-4.56058e-05
-2.29174e-05
-1.29668e-06
1.96362e-05
4.07888e-05
6.36799e-05
8.72385e-05
0.000112996
0.000140421
0.000175842
0.000239536
0.000299586
0.00027609
0.000330632
0.000423063
-0.000915889
-2.73043e-05
-0.0024914
-0.00302877
3.80813e-05
0.000607572
0.00082817
0.000886626
0.000835461
0.000692893
0.00049327
0.000256963
-1.62538e-05
-0.000346339
-0.000729649
-0.00116681
-0.00164499
-0.00228939
-0.00226619
-0.00156544
-0.000957185
-0.000533134
-0.000157219
0.00038051
0.000982806
0.00202017
-0.00771702
0.000269323
3.11813e-05
1.88642e-05
-6.61429e-05
-0.000132365
8.29676e-05
-8.88424e-05
-6.23727e-05
0.000287604
-0.000102855
-0.000317885
-6.4754e-05
0.000187193
-0.000405565
7.23091e-05
-0.000136196
9.82291e-05
-0.000142327
0.000342077
-0.000313922
0.000121679
-0.000445018
-0.000172808
-0.00014713
-0.000374282
-0.00025085
-0.000206567
-1.55233e-05
-1.55771e-05
-4.15661e-06
-0.000113072
-2.44179e-05
-3.48511e-06
-2.89988e-05
-6.50782e-05
-1.56667e-06
-1.20181e-05
-5.53904e-05
-3.5632e-05
-2.62284e-05
1.09799e-05
5.75358e-05
6.96885e-05
1.02622e-05
0.000162743
0.000426571
0.00408796
0.00383248
0.00386595
0.00388621
0.00269877
0.000521019
0.000505341
0.000473339
0.000428647
0.000368779
0.000303299
0.000239073
0.000179382
0.00012612
7.96441e-05
4.0711e-05
1.01919e-05
-1.07491e-05
-1.83261e-05
-1.13864e-05
1.05602e-05
4.73431e-05
9.48095e-05
0.000150214
0.000215088
0.000284991
0.000353216
0.000412455
0.000456256
0.0004809
0.000483942
0.000461605
0.000410953
0.000336893
0.000248016
0.000146078
3.07926e-05
-0.000103161
-0.000258387
-0.000434882
-0.000633861
-0.000854548
-0.00108916
-0.00131446
-0.0014851
-0.0015635
-0.00149559
-0.000764387
-0.000738605
-0.00048631
-0.000307591
-0.000215714
-0.000166646
-0.000134702
-0.000109887
-8.8676e-05
-6.99728e-05
-5.29557e-05
-3.67829e-05
-2.09464e-05
-4.82862e-06
1.19848e-05
2.98671e-05
4.96065e-05
7.28479e-05
0.000101666
0.000137761
0.000184806
0.000253573
0.000360983
0.000492284
0.000590874
0.000465927
0.000437574
0.000331875
0.000204916
8.54672e-05
-4.35053e-05
-0.000183426
-0.000317126
-0.000426389
-0.000486262
-0.000312577
-0.000267449
-0.000142826
-3.85978e-05
6.68798e-05
0.000179578
0.000272969
0.000337897
0.000440154
0.000582119
0.000114082
3.87391e-05
-3.44559e-05
-0.000105219
-0.000172937
-0.000239128
-0.000300646
-0.000357136
-0.000404713
-0.000446836
-0.000496973
-0.000519311
-0.000499827
-8.49322e-05
-5.77829e-05
-3.40489e-05
-1.26825e-05
8.582e-06
3.01262e-05
5.17342e-05
7.4855e-05
9.96863e-05
0.000126628
0.000157104
0.000203357
0.000280977
0.000283231
0.00029869
0.000370748
0.000488452
0.00569773
-0.00244901
0.000868579
0.000873327
0.000773707
0.000597475
0.000376737
0.000126215
-0.000172181
-0.000530629
-0.000943446
-0.00140327
-0.00189402
-0.0024723
-0.00188955
-0.00123816
-0.000729456
-0.000361694
9.10228e-05
0.000671353
0.00139732
0.000128774
-5.76077e-05
2.08713e-05
-0.000173777
-7.78214e-05
-1.22509e-06
-0.000145986
-5.51873e-05
-0.000223315
0.000220142
-0.000203095
-0.000101613
0.000347618
-9.34761e-05
1.73806e-05
-0.000109745
9.08976e-05
0.000147273
-0.000561745
-0.000145558
0.000619333
-0.000220112
-9.82286e-05
-0.000122407
0.00181948
-0.00116246
-2.70848e-05
-0.00028113
7.3209e-05
-6.31153e-05
2.23297e-05
-5.13941e-05
-8.01763e-05
1.46377e-05
-2.48526e-05
-7.99302e-06
-5.6686e-05
-3.26661e-05
-1.45979e-05
-2.67285e-05
-2.71259e-05
-3.94285e-05
5.10277e-05
1.6642e-05
4.69127e-05
9.44641e-05
0.000249864
0.000888737
0.00399444
0.00392213
0.00387093
0.00404406
-0.00043256
0.000432098
0.000463949
-0.000425076
0.000195705
0.000723056
0.000278999
-0.000567043
-0.000119379
-0.000259857
-0.000162884
-0.00179402
0.00137346
0.000741805
0.000389793
-0.00788136
-0.00110649
0.00137581
0.00296863
-0.00245224
0.00291833
-0.00252594
0.0040282
-0.003512
-0.00454025
0.00503113
-0.0055075
0.00596035
-0.00639061
0.00679053
-0.00715452
0.00749079
-0.00778543
0.00805639
-0.00828436
0.00849326
-0.00865999
0.00881215
-0.00892532
0.00902787
-0.00909353
0.00915324
-0.00917946
0.00920439
-0.00919926
0.00919821
-0.00917101
0.00915539
0.00910482
-0.00912219
0.00907222
-0.00907571
0.00908817
-0.00906152
0.00918548
-0.00911674
0.00938406
-0.00926378
0.00969731
-0.00951647
0.010147
-0.00989795
0.0107413
-0.0104219
0.0114728
-0.0110888
0.0123202
-0.0118838
0.0132487
-0.0127774
0.0142182
-0.0137325
0.0151847
-0.0147081
0.0160933
-0.0156538
0.0168831
-0.0165074
0.0175123
-0.0172188
0.0179574
-0.0177591
0.018192
-0.0181019
0.0181894
-0.0182228
0.0179163
-0.0180947
0.0173383
-0.0176822
0.0164158
-0.0169471
0.0151059
-0.0158473
0.013369
-0.0143401
0.0111841
-0.0123899
0.0085832
-0.00999345
0.00570113
-0.00724035
0.0027791
-0.00432408
0.000400864
-0.00126318
-0.00151391
0.000690168
-0.00283126
0.00221982
-0.00362452
0.00324144
-0.00414032
0.00388713
-0.00453225
0.00434488
-0.00485176
0.00470278
-0.00511699
0.00499559
-0.00533618
0.00523757
-0.00551419
0.0054354
-0.00565509
0.00559403
-0.00576172
0.00571743
-0.00583557
0.00580717
-0.00587734
0.00586475
-0.00588745
0.00589128
-0.00586551
0.00588638
-0.00580939
0.00584886
-0.00571583
0.00577652
-0.00557723
0.00566393
-0.00538106
0.00550039
-0.00511172
0.00527262
-0.00474503
0.00496217
-0.00423705
0.00454088
-0.00351137
0.00393984
-0.0025172
0.00304356
0.00200408
-0.00121173
0.0015512
-0.00108528
-0.0019326
0.00243874
0.00103602
0.000219121
-0.00339162
0.00296655
-0.00206041
0.00249798
0.00085791
0.00353005
-0.00326402
-0.00372971
0.00387556
-0.00396284
0.0039855
0.00383106
-0.00394468
0.003401
-0.00365434
0.00270862
-0.0030867
0.0017987
-0.00226682
0.000766303
-0.00121365
0.00248279
-0.00296228
-0.000908834
-0.00396829
0.00370085
-0.00142498
0.001888
0.00101375
-0.00201029
0.00198301
0.0114474
-0.00861036
-0.00372024
0.00337608
-0.000753685
-0.000592216
0.0076789
-0.00748319
-0.00429449
0.00415167
0.00439131
-0.00442991
0.00444099
-0.00437411
0.00428658
-0.004107
0.00390505
-0.00363208
0.00336705
-0.00302915
-0.0022637
0.00270386
0.0018127
-0.0012306
0.0012982
0.00519968
-0.00422636
0.0079342
-0.00782012
0.00633866
-0.0058168
-0.00851193
0.00321477
0.013383
-0.00457435
-0.00302114
0.00415281
0.00217854
0.00726447
-0.00698547
0.00294402
-0.00180297
0.00216406
0.00234985
-0.00263991
0.00207287
-0.00767164
0.00782691
0.000262555
-0.00517353
0.00589658
0.00116512
-0.0079941
0.00803284
0.00798528
-0.00801973
-0.00790447
0.00779925
-0.00765601
0.00748307
-0.00727774
0.00703862
-0.00677095
0.00647031
-0.00614635
0.00578922
0.00500961
-0.00541433
0.00414579
-0.00459263
0.00320582
-0.0037028
0.00218533
-0.00270465
-0.00170531
0.00120547
-0.00372071
0.003439
-0.00521094
0.00512601
0.00397069
-0.0042088
0.00143205
-0.00209118
-0.00120786
4.03959e-05
-0.00460724
0.00441753
0.00490215
-0.00502153
0.0031308
-0.00346807
-0.000589908
-0.0044216
0.00420486
-0.000450904
-0.000402386
-0.00321352
0.00273819
-0.00114066
-0.000729885
0.00301036
-0.00480439
-0.00512327
0.00502223
-0.000221115
-0.000188708
-0.00397198
0.00371212
-0.000532982
-0.000496675
0.00528876
-0.00534654
-0.00543609
0.00540204
0.00547078
-0.00548346
-0.00548927
0.00549785
0.00548321
-0.00545309
0.00542418
-0.00537245
0.00532091
-0.00524606
0.00517001
-0.00507033
-0.00484167
0.00496829
-0.004554
0.00471111
-0.00419249
0.00439585
-0.00369841
0.00397939
-0.00309228
0.00337551
-0.00259548
0.00289417
-0.00191728
0.00228803
0.00152745
-0.00103899
0.00111031
0.00711951
-0.00142177
0.00197386
-0.00254396
-0.000988429
-0.00666453
0.00699683
0.000599933
-0.00373788
0.00511134
0.000589065
-0.000357357
0.0015341
-0.00402549
0.00130108
-0.00179591
-0.00616052
0.00908593
0.00528689
-0.00140754
0.00458058
0.000960161
0.000463668
0.00154922
0.00409999
-0.00650618
-0.00441194
-0.00349583
-0.00613265
0.00385873
-0.00459856
0.00105546
-0.000623371
0.000811024
0.000927823
0.00662515
-0.00588334
-0.000203312
-0.00282547
0.00835179
-0.0074832
-0.00454728
0.000889659
-0.00860669
-0.00499247
0.00459963
-0.00763132
-0.00025003
-0.00674167
-0.00479731
-0.00663967
0.00746785
0.00171211
0.00518989
-0.0048001
0.0101588
-0.0092855
-0.0110439
0.0118176
0.0131484
-0.0125509
-0.0136691
0.0140458
-0.0143231
0.0144494
-0.014473
0.0143008
-0.0140454
0.0135148
-0.0129572
0.0120138
-0.0111195
0.00971624
-0.0084777
0.0065837
0.00292908
-0.00540136
-0.000905376
-0.000984172
0.00293623
-0.0041744
0.00526694
-0.0059964
0.00660066
-0.00696235
-0.00729641
0.00738744
-0.00665705
0.00732841
0.00639584
-0.00499851
-0.00363129
0.00565146
0.00276454
0.00569186
-0.00598475
0.000110234
-0.00618807
-0.00849645
0.000941505
-0.000507425
-0.000987917
0.000706788
-0.00101446
0.00104564
-0.00144069
0.00145955
0.000968668
-0.00103481
0.00163861
-0.00177097
-0.00179082
0.001713
0.00150473
-0.00150596
0.00160948
-0.00175547
-0.00193329
0.0018781
-0.00171299
0.00148968
0.0018003
-0.00158016
0.00148241
-0.00205906
0.00185597
0.00237612
-0.00218893
-0.0015697
0.00191731
0.000806429
0.00151175
-0.00246877
0.0023753
0.00183062
-0.00181324
-0.00256079
0.00245104
0.0018307
-0.0017398
0.00248345
-0.00233618
-0.00188119
0.00222327
0.000602255
0.00166153
-0.00281053
0.00249661
0.00288945
-0.00276777
0.00195835
0.00203609
-0.000884564
0.000439548
0.00017522
-0.000348028
9.996e-05
-0.000247091
-0.000438628
0.00031622
-0.000338668
-5.80619e-05
-0.00297955
0.00350057
0.00104866
0.000912527
-0.00116338
0.000467075
-0.000673641
-0.000520842
-0.000600432
0.000782228
-0.000797751
0.000499374
-0.000514951
-0.00077473
0.000770574
0.000750114
-0.000801508
0.000385781
-0.000465957
-0.000396788
0.000411426
0.00044279
-0.000467642
-0.000390019
0.000324941
0.000197461
-0.000254147
-0.000192558
-0.000255714
0.000222958
-0.000255624
0.000226954
-0.000241551
-0.000127554
0.000100822
-0.000158657
0.00013153
1.87791e-05
-5.81982e-05
-0.000311417
0.000362445
0.000201042
-0.0001844
-0.000348478
0.000395393
0.000408701
-0.000314237
-0.000737341
0.000987204
0.00151279
-0.00108622
0.000249698
-0.000469809
-0.000634865
-0.000294589
0.00208826
0.0019997
0.00404662
0.00183187
0.00209027
0.00173789
0.00213304
0.00242511
0.00161895
0.00171637
0.000982399
-0.0057262
0.00529364
-3.43423e-05
0.00155576
-4.313e-05
-0.00101816
0.00145798
0.000869838
-0.00465135
0.00468943
0.000538535
-0.00725429
0.00749159
0.000424612
0.00476348
-0.00490264
-0.000258049
0.00585038
-0.0052428
0.00105027
0.00138234
0.00210494
-0.00119974
0.000998448
-0.00137462
0.000545152
-0.000935069
0.00119087
-0.000278344
0.00164889
0.00156458
0.00364859
0.0022232
0.000898373
-0.00912985
-4.11641e-05
-0.00914817
-0.00140729
0.00297187
0.00453866
-0.00403332
0.00550545
-0.00503211
0.00639054
-0.00596189
0.00715774
-0.00678896
0.00779028
-0.00748698
0.00828996
-0.00805088
0.00866652
-0.00848714
0.00893178
-0.00880566
0.00910099
-0.00902135
0.00918735
-0.00914664
0.00920772
-0.00919753
0.00917995
-0.0091907
-4.33492e-05
-0.00254601
0.00113872
-0.00909556
0.00908418
-0.00906082
0.00907138
-0.00907917
0.00912652
-0.00917732
0.00927213
-0.00937515
0.00952536
-0.00969006
0.00990515
-0.0101416
0.0104266
-0.0107385
0.0110917
-0.011472
0.0118844
-0.0123206
0.0127769
-0.0132499
0.0137308
-0.0142204
0.0147043
-0.0151885
0.0156501
-0.0160958
0.0165067
-0.0168833
0.0172202
-0.0175121
0.0177601
-0.0179567
0.0181027
-0.0181917
0.0182225
-0.018192
0.0180888
-0.0179264
0.017668
-0.0173572
0.0169223
-0.0164453
0.0158114
-0.0151474
0.0142929
-0.0134219
0.0123327
-0.0112458
0.00993137
-0.00864886
0.00716375
-0.0057916
0.0042281
-0.00294457
0.00144899
-0.00020898
-0.00055541
0.00151334
-0.00225195
0.00279143
-0.00327773
0.00359704
-0.00390463
0.00413239
-0.0043481
0.00453351
-0.00470015
0.00485622
-0.00499092
0.00512263
-0.00523251
0.00534174
-0.00543042
0.00551943
-0.0055894
0.0056601
-0.00571306
0.00576576
-0.00580254
0.00583923
-0.00586018
0.00588144
-0.00588627
0.00589245
-0.00588047
0.00587174
-0.00584187
0.00581727
-0.00576766
0.00572569
-0.00565285
0.00558872
-0.00548705
0.00539409
-0.00525633
0.00512647
-0.00494166
0.00476642
-0.00451285
0.00426534
-0.00390435
0.00353888
-0.0030466
0.00255712
-0.00196625
-0.00150506
0.000305321
-0.000709213
0.000343713
-1.93128e-05
0.00203927
-0.00157533
2.82578e-05
0.00326268
-0.00293081
-0.00352639
0.00373131
0.00396302
-0.00387755
-0.00398616
0.00394267
-0.0038342
0.00365078
-0.00340369
0.00308657
-0.00270457
0.00227818
-0.0017453
0.00125903
0.000585788
0.0041571
-0.000456256
0.00395611
-0.000303052
0.00676214
9.38197e-05
0.00196519
1.78109e-05
0.00370381
-0.000338386
-0.00438453
0.00429476
-0.00442573
0.00443893
-0.00426918
0.00438949
-0.0038908
0.00411716
-0.00334419
0.00364418
0.00305892
-0.00267617
0.00228503
-0.00178336
0.00167022
0.0105443
-0.00732952
0.00477264
0.000175674
0.000271782
0.000506117
0.00669382
-0.00629095
0.000382167
-0.00802611
3.20045e-05
-0.0080256
0.00800199
-0.00792652
-4.03253e-05
0.00018188
0.00790843
-0.00797909
0.00765732
-0.00779663
0.00727589
-0.00748215
0.0067697
-0.00704055
0.00614238
-0.00647225
-0.00578831
0.00540934
-0.00501144
0.00458849
-0.00415366
0.00368735
-0.00321621
0.0026983
-0.00222494
0.00170678
-0.00185797
0.000775731
-0.00109997
-0.00092958
-0.000288952
0.00476504
-0.000347505
0.00460215
0.000504534
0.00808611
-0.00422739
0.00063576
0.000767123
0.000883035
0.00549124
-2.04637e-05
0.00548995
-0.00528464
0.00521383
-0.00539684
0.00535124
0.00544178
-0.00546469
6.7659e-07
-0.000158632
-0.00547617
0.0054958
-0.00541861
0.0054594
-0.00531489
0.00537857
-0.00516474
0.00525198
0.00507555
-0.00496256
0.00484572
-0.0047053
0.0045608
-0.00438495
0.00420733
-0.00396779
0.00368203
-0.00338244
0.00313341
-0.00285732
0.0025961
-0.00226546
0.00194558
-0.00152252
0.00666434
0.00130731
-0.00123665
0.000965212
0.00207221
-0.00309897
-0.00273218
-0.000934906
-0.00164537
0.00468672
0.00439921
0.0092673
0.00242887
0.00102667
-0.00192668
0.000950553
-0.000607444
-0.00184156
0.000877016
0.00158451
0.00544232
-0.000842693
0.000736739
0.00104832
0.00925653
-0.0083699
-0.0101844
0.0110199
-0.0118394
0.0125323
0.0136564
-0.0131631
0.0143126
-0.0140556
0.014451
-0.0144673
0.0139901
-0.0143364
0.0128592
-0.0135888
0.01097
-0.0121368
0.00825632
-0.0099013
-0.00701297
0.0047236
0.00103421
-0.00330039
-0.00277228
0.00120684
-0.00521993
0.00426274
-0.00654216
0.00600903
0.00706916
-0.00722637
0.00749684
-0.00711633
0.00694277
-0.00595997
-0.00125933
0.0013881
0.000116483
0.000373643
-0.000456588
0.00192937
-0.00138421
-0.00137337
0.00131576
-0.000327729
-0.000124926
-0.00123846
0.00125933
-0.0014749
0.00130112
-0.000152215
-0.0016058
0.00168877
-0.00127686
0.00118802
0.00183082
-0.00189319
-0.00142539
-0.00168618
0.00158332
-0.000196502
3.16895e-06
-0.000576651
0.00218266
-0.000326692
0.00211791
-0.00250415
0.00240253
-0.00038624
0.000213603
-0.000957026
-0.00234815
0.00242046
-0.00244223
0.00230604
-0.000611609
-0.00025475
-0.00238854
0.00248677
-0.00238762
0.00224529
-0.00055692
-9.08873e-05
0.000962775
-0.00114901
-0.00309041
0.00294486
0.000870748
-7.21263e-06
-9.10169e-05
0.000181796
0.00177333
0.000655375
-0.000718491
-0.000659361
0.000681691
-2.4616e-05
0.00054749
-0.000660562
-0.000254018
-0.000274781
0.000270191
-0.000294609
0.000519256
-0.000522741
0.000122468
-7.99511e-05
0.000396283
-7.13413e-05
0.000296545
-0.000325543
0.000388292
0.000147224
-0.000159242
-0.000266227
0.000210835
0.000174289
-0.000209925
1.23929e-05
-3.8615e-05
-0.00023731
0.000248294
0.000258578
0.000374875
-0.000305185
0.000418964
0.000583283
-0.00042054
0.000775447
0.00209124
-0.0012025
-0.00222189
0.00395978
-0.0020318
0.00386367
0.00183415
0.00196486
0.00186762
0.00400095
0.00395789
0.00396719
-0.00166432
0.00408943
0.00333532
0.000442375
-0.000300489
-0.00463294
0.00130904
-0.00408388
-0.000102466
0.00194426
0.000839782
-0.000227257
0.000906587
0.00067881
0.000537924
0.000589746
0.000508914
0.000368306
0.000291721
0.00023389
-0.00101948
-0.00103088
-0.00094786
-0.000865653
-0.000778705
0.00105443
0.000795233
-0.000979002
-0.00090588
-0.000695071
-0.000433203
-0.000155107
0.0013454
0.00102168
0.000753975
0.000529378
0.000381444
0.000282378
0.000207664
0.000148468
0.000101439
6.23487e-05
2.69407e-05
-6.00868e-06
-3.81101e-05
-6.9812e-05
-0.000101615
-0.000135659
-0.000172447
-0.000213553
-0.000260762
-0.000318248
-0.000399853
-0.000543274
-0.000833087
-0.00131791
-0.00172288
-0.0025437
-0.0030125
-0.00294774
-0.00266264
-0.00223781
-0.00177838
-0.00133934
-0.00094142
-0.000588027
-0.000275688
-2.29096e-06
0.000235364
0.000445337
0.000629034
0.000787326
0.000904779
0.00096438
0.000968316
0.000928114
0.000848223
0.000734292
0.000599671
0.000456931
0.000322164
0.000206739
0.000106313
2.73474e-05
-2.33445e-05
-3.53021e-05
6.79199e-07
5.775e-05
0.000131888
0.000222214
0.000325015
-0.000996304
0.0019787
-0.000125556
0.00100502
0.000269048
7.04864e-05
0.000190476
-5.28406e-05
-0.000146265
4.67341e-05
-0.00056064
0.000304927
-0.000337682
-0.000108399
-0.000171097
-0.000195766
0.000815559
-0.000873622
-0.000346898
-0.000355239
-0.000593801
-0.000338108
6.24996e-05
2.71492e-05
-1.98368e-05
0.00045271
-0.000283715
0.000227868
0.0001072
-0.000506233
0.000221089
0.000569415
0.00136844
0.000271111
-0.000625715
-0.00127521
-0.0022837
-0.00367764
-0.00436716
-0.0037541
-0.00286319
-0.0019872
-0.00118624
-0.000482889
0.000127902
0.000643502
0.00110544
0.00148838
0.000765513