/*--------------------------------*- C++ -*----------------------------------*\
  =========                 |
  \\      /  F ield         | OpenFOAM: The Open Source CFD Toolbox
   \\    /   O peration     | Website:  https://openfoam.org
    \\  /    A nd           | Version:  9
     \\/     M anipulation  |
\*---------------------------------------------------------------------------*/
FoamFile
{
    format      ascii;
    class       volVectorField;
    location    "1.5535";
    object      U;
}
// * * * * * * * * * * * * * * * * * * * * * * * * * * * * * * * * * * * * * //

dimensions      [0 1 -1 0 0 0 0];

internalField   nonuniform List<vector> 
13022
(
(-0.00602161 0.00712966 0)
(-0.0398272 0.0184723 0)
(-0.131644 0.0244623 1.77904e-12)
(-0.245555 0.0264231 9.91009e-13)
(-0.36697 0.0264467 0)
(-0.487166 0.0251877 -1.02114e-12)
(-0.600337 0.022989 4.16097e-13)
(-0.702359 0.0202242 0)
(-0.790806 0.0171191 3.16012e-13)
(-0.864517 0.0138964 -2.89061e-13)
(-0.923407 0.01077 0)
(-0.968247 0.00789176 2.58137e-13)
(-1.00036 0.00534012 0)
(-1.02133 0.00315048 0)
(-1.03288 0.00135001 -4.2897e-21)
(-1.03688 -1.47062e-05 0)
(-1.03545 -0.000862158 3.0073e-21)
(-1.03128 -0.00101755 0)
(-1.02777 -0.000388517 0)
(-1.02856 0.0010186 4.85772e-13)
(-1.03694 0.00306008 0)
(-1.05569 0.0056481 2.36599e-13)
(-1.08715 0.00869126 -2.29818e-13)
(-1.13323 0.0120641 -2.20563e-13)
(-1.19512 0.0155576 0)
(-1.27283 0.0188564 0)
(-1.36487 0.0216122 0)
(-1.46823 0.0235264 0)
(-1.57864 0.0243576 1.58511e-13)
(-1.69078 0.0239318 0)
(-1.79869 0.0221995 0)
(-1.89646 0.0192622 0)
(-1.97886 0.0153048 0)
(-2.04159 0.0105679 -1.22557e-13)
(-2.08137 0.00520923 0)
(-2.09523 -0.000815798 1.19416e-13)
(-2.07942 -0.00785992 0)
(-2.02908 -0.0158621 1.23309e-13)
(-1.93924 -0.0249021 1.29023e-13)
(-1.80447 -0.0349981 -1.38635e-13)
(-1.61936 -0.0458902 1.54388e-13)
(-1.3801 -0.0567479 -1.80927e-13)
(-1.08738 -0.0657884 2.29103e-13)
(-0.75039 -0.0701635 -3.30071e-13)
(-0.385908 -0.0649626 -6.25453e-13)
(-0.0123409 -0.028604 -5.0824e-12)
(0.143731 -0.0341888 0)
(0.321504 -0.0335528 7.78752e-13)
(0.447498 -0.0221495 -5.58534e-13)
(0.526816 -0.0143549 0)
(0.580913 -0.0103374 0)
(0.621826 -0.00809739 0)
(0.65456 -0.00657726 -3.81764e-13)
(0.68121 -0.00537388 0)
(0.702794 -0.00433791 0)
(0.719907 -0.00340924 0)
(0.732954 -0.00255693 7.86212e-21)
(0.742211 -0.00175469 -3.36568e-13)
(0.747832 -0.000976905 -3.34006e-13)
(0.749853 -0.000183332 -1.57393e-22)
(0.748174 0.000642848 2.64983e-21)
(0.742478 0.00154219 0)
(0.732254 0.00257022 0)
(0.716715 0.00379314 3.48603e-13)
(0.694695 0.00530697 -3.59498e-13)
(0.664438 0.00725793 0)
(0.623338 0.00985787 0)
(0.567629 0.0133578 -4.37379e-13)
(0.492254 0.0179262 0)
(0.390268 0.0236905 -6.43044e-13)
(0.248085 0.0338906 0)
(0.0243847 0.0338865 -3.23243e-10)
(0.0170895 0.00837236 3.20085e-10)
(0.0211804 0.0689422 1.90599e-12)
(0.0209827 0.171218 0)
(0.0192348 0.26747 0)
(0.0148446 0.348132 0)
(0.00889433 0.406008 6.08474e-13)
(0.0022167 0.435704 5.71389e-13)
(-0.00493696 0.43347 0)
(-0.0119838 0.397263 6.23637e-13)
(-0.0180024 0.328677 7.46035e-13)
(-0.0212739 0.234176 1.0315e-12)
(-0.0200711 0.132968 0)
(-0.0117523 0.0390448 -5.58348e-12)
(0.0294241 0.038543 -5.72193e-12)
(0.0464265 0.14031 8.72186e-13)
(0.0284089 0.312019 7.94472e-13)
(0.0186116 0.418948 0)
(0.0122269 0.487158 0)
(0.00668731 0.527196 4.72459e-13)
(0.00161116 0.542946 0)
(-0.00320123 0.536046 0)
(-0.00791671 0.506742 0)
(-0.0128393 0.453797 3.85169e-20)
(-0.0183863 0.374608 0)
(-0.0245672 0.267549 4.55987e-13)
(-0.0307895 0.131458 -1.67547e-12)
(-0.0281953 0.0495101 -3.20561e-12)
(-0.0426222 0.100581 1.57424e-12)
(-0.059835 0.0264927 3.20217e-12)
(0.0236764 -0.0556379 1.01363e-11)
(0.210105 -0.0506069 7.91102e-14)
(0.461352 -0.0306793 0)
(0.634555 -0.0135316 4.05461e-13)
(0.750849 -0.000882475 0)
(0.829862 0.00760244 0)
(0.882217 0.0138016 0)
(0.91335 0.0186935 2.90879e-13)
(0.92613 0.0227233 -2.5301e-13)
(0.922003 0.0261776 -2.71023e-13)
(0.901607 0.0290731 -2.94435e-13)
(0.865471 0.0314614 0)
(0.813961 0.0333659 0)
(0.747464 0.034755 -4.93484e-20)
(0.66668 0.0355624 3.49964e-13)
(0.57286 0.0356993 4.31503e-13)
(0.468311 0.0349699 0)
(0.356342 0.0332624 0)
(0.239801 0.0297648 0)
(0.129692 0.0230154 0)
(0.0747623 0.0242843 -3.99956e-12)
(0.105449 0.0313562 9.55005e-13)
(0.0542995 0.0366636 2.67075e-12)
(0.125447 -0.0921516 6.33078e-13)
(-0.117173 0.0100975 -3.2019e-12)
(-0.198953 0.0202043 0)
(-0.317207 0.0239854 7.74094e-13)
(-0.409549 0.0178555 -6.00037e-13)
(-0.479996 0.0133455 0)
(-0.532813 0.0100676 0)
(-0.572308 0.00758869 -4.36914e-13)
(-0.601684 0.00563885 4.15277e-13)
(-0.623064 0.00406987 -4.00992e-13)
(-0.63789 0.00275577 3.91675e-13)
(-0.647069 0.00159525 0)
(-0.651088 0.00050698 -7.67365e-13)
(-0.65017 -0.000556563 -3.84175e-13)
(-0.644425 -0.00160156 3.87589e-13)
(-0.633741 -0.00268674 -3.94103e-13)
(-0.617816 -0.00385201 0)
(-0.59616 -0.00513631 4.18872e-13)
(-0.568101 -0.00658519 0)
(-0.532742 -0.00826067 4.67353e-13)
(-0.488975 -0.010177 0)
(-0.435754 -0.0121017 3.65222e-20)
(-0.371002 -0.0146316 -6.86759e-13)
(-0.292855 -0.0177917 8.39632e-13)
(-0.199869 -0.0218572 -1.15278e-12)
(-0.0930818 -0.0249808 -1.11824e-12)
(-0.0338982 -0.0211684 0)
(-0.0709348 -0.0317496 -1.4018e-13)
(-0.0182666 -0.042319 0)
(0.0659037 -1.0624 0)
(0.0597306 -0.436988 -3.07969e-13)
(0.0706242 -0.242001 -4.34871e-13)
(0.103612 -0.333286 4.62339e-13)
(0.116363 -0.162625 -8.70248e-13)
(-0.00690991 -0.0826512 4.46626e-12)
(-0.0181567 -0.154816 -8.76678e-13)
(0.156426 0.0338299 0)
(-0.126685 -0.0489156 -3.23726e-12)
(-0.0828926 -0.121439 -3.27623e-10)
(-0.215531 -0.524182 -3.81234e-13)
(0.0425197 -0.595328 4.56667e-13)
(0.0939805 -0.397467 -6.48861e-13)
(0.0754026 0.228793 0)
(0.775561 0.151115 5.50958e-13)
(0.474454 0.0848399 5.8482e-13)
(0.291428 0.0300818 0)
(0.345184 -0.00208335 0)
(0.50291 -0.00119328 -9.14375e-13)
(0.704222 0.0126726 3.08847e-13)
(0.911075 0.0330293 3.77248e-13)
(1.09678 0.0557674 -1.99453e-13)
(1.24423 0.0778333 1.00358e-13)
(1.34309 0.0976043 2.32192e-14)
(1.38577 0.114393 -1.57366e-13)
(1.36126 0.127506 0)
(1.25607 0.13663 0)
(1.057 0.139381 0)
(0.748843 0.13175 -4.41767e-13)
(0.293497 0.081164 -6.7548e-13)
(-0.31779 0.135251 1.72259e-13)
(-0.679835 0.0300392 5.67672e-13)
(-0.998083 -0.0239504 0)
(-1.1828 -0.0638121 2.65201e-14)
(-1.28387 -0.0879365 9.75398e-14)
(-1.303 -0.111442 0)
(-1.19879 -0.130806 -2.67574e-14)
(-0.90823 -0.147716 0)
(0.732102 0.848572 2.06155e-13)
(0.944188 0.458337 0)
(0.916313 -0.0286801 0)
(0.486656 -0.146941 -1.52941e-14)
(0.467922 -0.175475 8.75375e-14)
(0.479596 -0.192071 -6.27062e-14)
(0.600639 -0.253409 1.08556e-14)
(0.738503 -0.288508 8.55136e-15)
(0.788555 -0.309157 -3.72838e-14)
(0.888603 -0.350638 9.25974e-16)
(0.982792 -0.376894 0)
(1.04497 -0.402831 -1.41481e-14)
(1.10326 -0.415766 0)
(1.18802 -0.449815 -1.05856e-14)
(1.24873 -0.468899 -2.39647e-15)
(1.26816 -0.47137 0)
(1.3271 -0.492808 2.93587e-14)
(1.34872 -0.498811 1.54824e-14)
(1.39013 -0.513675 4.48623e-15)
(1.40817 -0.51937 -1.24696e-14)
(1.44233 -0.530687 2.25034e-14)
(1.48315 -0.554772 4.42697e-15)
(1.56809 -0.58919 -3.03428e-14)
(-0.117344 -0.666344 -4.31094e-20)
(-0.0238193 -0.220552 0)
(0.0284881 -0.0056577 0)
(0.144365 0.293056 -5.77509e-14)
(0.903127 -0.248069 -2.99502e-14)
(0.524935 -0.160758 -2.82314e-14)
(0.401844 -0.127883 0)
(0.321933 -0.102506 4.3718e-14)
(0.288066 -0.095222 0)
(0.231999 -0.0709258 0)
(0.127811 -0.0270971 1.73668e-13)
(0.107672 -0.035763 0)
(0.0676105 -0.0179289 4.72279e-13)
(-0.0141449 -0.033722 0)
(-0.0701236 0.0801063 0)
(-0.0917607 0.0566997 0)
(-0.114502 0.0320119 -2.54099e-13)
(-0.172208 0.0634066 -1.97099e-14)
(-0.227917 0.113392 0)
(-0.270426 0.101076 -9.86741e-14)
(-0.201355 0.0547385 -1.50166e-13)
(-0.141909 0.0210527 4.08708e-14)
(-0.0758507 0.0166582 0)
(0.0079463 -0.0857728 -9.59003e-13)
(0.326166 -0.15175 0)
(3.33128 -1.15396 4.36793e-15)
(3.23521 -1.1574 -6.5517e-15)
(3.23527 -1.15649 6.55168e-15)
(3.23629 -1.15554 0)
(3.33136 -1.25351 1.31282e-14)
(0.0890287 0.076919 2.61715e-12)
(-0.320704 -0.298195 7.62403e-13)
(-0.0814992 0.0228443 2.78338e-12)
(-0.186965 0.0256379 7.27797e-20)
(-0.305983 0.0266209 0)
(-0.427619 0.0259583 0)
(-0.544931 0.024179 -4.5767e-13)
(-0.652929 0.0216599 -3.82827e-13)
(-0.74838 0.0187006 -3.33965e-13)
(-0.829532 0.0155078 -3.01245e-13)
(-0.895783 0.0123097 -2.7898e-13)
(-0.947509 0.00929342 2.63772e-13)
(-0.985799 0.0065721 0)
(-1.01213 0.00419823 0)
(-1.02817 0.00219907 6.89043e-21)
(-1.0357 0.000609592 0)
(-1.0367 -0.000514464 -2.41071e-13)
(-1.03351 -0.00103324 0)
(-1.02922 -0.000804371 0)
(-1.0274 0.000227578 -2.43171e-13)
(-1.03162 0.00196559 -2.42165e-13)
(-1.04487 0.00429187 2.3907e-13)
(-1.0697 0.00711889 -2.33535e-13)
(-1.10827 0.0103472 -4.50992e-13)
(-1.16217 0.0138131 -3.65628e-20)
(-1.23205 0.0172529 0)
(-1.31721 0.0203218 0)
(-1.41537 0.0226917 -3.53416e-13)
(-1.52286 0.0240906 6.78966e-20)
(-1.63485 0.0243096 1.53075e-13)
(-1.74564 0.0232257 1.43352e-13)
(-1.84919 0.0208696 -1.35291e-13)
(-1.93987 0.0173961 -1.28961e-13)
(-2.01291 0.0130193 -1.243e-13)
(-2.06453 0.00796341 1.21199e-13)
(-2.09173 0.00228611 -1.19619e-13)
(-2.09135 -0.0042182 1.19636e-13)
(-2.05886 -0.0117369 2.43048e-13)
(-1.98943 -0.0202476 1.25769e-13)
(-1.87782 -0.0298256 0)
(-1.71851 -0.0403804 0)
(-1.5066 -0.0514057 1.65855e-13)
(-1.24009 -0.061658 0)
(-0.923434 -0.0687132 0)
(-0.570534 -0.069763 0)
(-0.195592 -0.0540035 0)
(0.0698747 -0.0462383 0)
(0.237674 -0.0381093 0)
(0.391805 -0.027719 0)
(0.491488 -0.0176459 0)
(0.556037 -0.0120163 0)
(0.602605 -0.00908449 0)
(0.639048 -0.00728198 0)
(0.66857 -0.00594936 0)
(0.692594 -0.00484029 0)
(0.711883 -0.00386288 0)
(0.726922 -0.00297579 0)
(0.738047 -0.00215025 -6.48069e-21)
(0.745472 -0.0013627 0)
(0.749296 -0.000587702 1.14765e-21)
(0.749488 0.000226729 0)
(0.745855 0.00107922 3.34995e-13)
(0.737974 0.0020364 0)
(0.725212 0.00315209 0)
(0.70661 0.00450504 0)
(0.680739 0.00621394 3.66759e-13)
(0.645456 0.00845466 0)
(0.597603 0.0114754 0)
(0.532789 0.0154909 0)
(0.445111 0.0206251 0)
(0.325386 0.0280921 7.61977e-13)
(-0.217948 0.0271891 9.92202e-13)
(0.162588 0.0380814 1.48251e-12)
(0.0203511 0.120372 0)
(0.0205122 0.220801 0)
(0.0173041 0.310233 0)
(0.0119914 0.380313 -6.45594e-13)
(0.00562278 0.42463 -5.84552e-13)
(-0.00131682 0.43879 -5.61594e-21)
(-0.00853547 0.419594 -5.92387e-13)
(-0.0151756 0.366786 -4.2874e-20)
(-0.0202746 0.283867 0)
(-0.0198013 0.181961 -1.32687e-12)
(-0.0151993 0.0785159 0)
(-0.0375963 -0.1068 -3.13001e-12)
(-0.0686546 -0.0792424 2.53198e-12)
(-0.0289633 -0.128937 1.56643e-12)
(0.0326715 0.234855 0)
(0.022833 0.371419 0)
(0.0152949 0.456968 0)
(0.00936807 0.510382 0)
(0.004134 0.537972 1.34693e-20)
(-0.000839377 0.542253 0)
(-0.0055691 0.524218 -1.51354e-20)
(-0.0103395 0.483349 -5.27391e-13)
(-0.0155615 0.417571 6.12795e-13)
(-0.0213905 0.324664 0)
(-0.0279093 0.203049 0)
(0.669299 -0.014341 3.4966e-13)
(0.698337 -0.00653706 -3.49512e-13)
(0.288488 -0.0560049 -2.37591e-14)
(0.346564 -0.0382449 0)
(0.412762 -0.0429564 0)
(0.556783 -0.0218161 4.37242e-13)
(0.726739 -0.00701038 1.02604e-14)
(0.794176 0.00373494 -2.92953e-13)
(0.858948 0.0109085 0)
(0.900216 0.0163758 -5.55538e-13)
(0.921916 0.0207996 5.42369e-13)
(0.926141 0.0245179 -2.69861e-13)
(0.913801 0.0276925 5.46877e-13)
(0.88548 0.0303275 0)
(0.841617 0.0324747 0)
(0.782554 0.0341285 -3.19051e-13)
(0.708795 0.0352347 -7.0335e-13)
(0.621278 0.0357289 3.99345e-13)
(0.521723 0.0354686 0)
(0.413054 0.0342336 0)
(0.298437 0.0320091 8.10689e-13)
(0.183345 0.0266206 0)
(-0.494703 0.012303 0)
(-0.508335 0.0115803 -4.93537e-13)
(-0.343171 0.0234195 0)
(-0.365935 0.02034 0)
(-0.260124 0.0229278 -9.70408e-13)
(-0.388713 0.019412 6.00477e-13)
(-0.232556 0.0270724 8.50385e-13)
(-0.447288 0.0154736 5.56635e-13)
(-0.521042 0.0105792 4.70613e-13)
(-0.553989 0.00874736 0)
(-0.588112 0.00655665 -4.24996e-13)
(-0.613269 0.00481609 4.07392e-13)
(-0.631229 0.00338811 -1.17201e-20)
(-0.643147 0.00216189 3.88473e-13)
(-0.649707 0.00104627 -3.84546e-13)
(-0.651238 -3.57845e-05 -3.83593e-13)
(-0.647904 -0.00107663 0)
(-0.639715 -0.00213658 0)
(-0.626461 -0.00325647 0)
(-0.607741 -0.00447664 -4.10961e-13)
(-0.58298 -0.00583745 -1.62402e-20)
(-0.551398 -0.00739283 9.04099e-13)
(-0.511977 -0.00919933 0)
(-0.463606 -0.0111583 -5.3925e-13)
(-0.405121 -0.0131982 4.0717e-20)
(-0.333594 -0.0160809 -7.52573e-13)
(-0.248262 -0.0197722 5.66095e-20)
(-0.147942 -0.0237901 0)
(0.0346238 0.276089 0)
(0.113585 -0.0554256 -2.5775e-13)
(0.900609 -0.304843 2.57561e-13)
(0.0715216 -0.672536 4.08018e-13)
(0.0124324 0.0823514 3.67324e-12)
(0.00235852 -0.0181437 -2.0981e-11)
(-0.141973 0.0445465 1.79962e-12)
(-0.10337 0.0897693 -8.32126e-13)
(-0.170352 0.0337174 0)
(0.636273 -1.36284 -4.1653e-14)
(-0.029724 -0.18723 -5.882e-13)
(-0.0236854 -0.219089 -6.26068e-13)
(0.0666298 -0.230082 -9.24038e-14)
(0.0878042 -0.567159 0)
(-0.128787 -0.199488 6.17586e-13)
(0.19347 -0.788103 0)
(-0.107833 0.0248342 0)
(-0.0152718 -0.667449 0)
(0.254306 -0.626659 9.65845e-14)
(0.0533822 -0.065426 0)
(0.604005 0.16689 -5.25434e-13)
(0.082539 0.604734 -4.66413e-13)
(0.40658 0.109645 5.85349e-13)
(0.342425 0.0565755 -6.19519e-13)
(0.31837 0.0698491 1.77188e-13)
(0.299855 0.00687156 0)
(0.415616 -0.00384078 0)
(0.600882 0.00460939 -4.11095e-13)
(0.808899 0.022377 3.08449e-13)
(1.00779 0.0442977 3.10163e-14)
(1.17608 0.066968 0)
(1.30028 0.0881602 2.39938e-14)
(1.37184 0.106357 9.08757e-14)
(1.38288 0.121163 -1.80088e-13)
(1.31954 0.132822 -1.64665e-13)
(1.16911 0.138949 -1.3206e-13)
(0.917685 0.137068 -1.66241e-13)
(0.549007 0.11996 5.31034e-14)
(-0.0664261 0.00763925 0)
(-0.482493 0.081639 5.64702e-13)
(-0.861992 0.00170082 3.34383e-13)
(-1.10223 -0.0461992 1.14234e-13)
(-1.24197 -0.0772465 2.52052e-14)
(-1.30551 -0.0993994 1.92358e-13)
(-1.26925 -0.121911 2.25849e-13)
(-1.08347 -0.138541 2.96324e-14)
(0.437299 0.76995 -2.57623e-14)
(-0.653047 -0.177159 -3.78485e-13)
(-0.0617981 0.0208697 -2.79224e-12)
(0.966058 0.677564 -1.98978e-13)
(1.11403 0.237203 9.1352e-15)
(0.597389 -0.190816 -2.48266e-14)
(0.447711 -0.157777 -3.24092e-14)
(0.478297 -0.176219 -1.50856e-14)
(0.514274 -0.22036 -2.79141e-14)
(0.677641 -0.271231 -1.85489e-14)
(0.762591 -0.288925 -3.73339e-14)
(0.829774 -0.328107 0)
(0.934604 -0.361683 2.80909e-14)
(0.988047 -0.372505 1.73944e-14)
(1.09145 -0.414227 -3.90898e-14)
(1.14773 -0.437186 2.42393e-14)
(1.2164 -0.457793 -2.54364e-15)
(1.2675 -0.468906 -2.14436e-14)
(1.30368 -0.486729 0)
(1.3381 -0.493016 -1.53197e-14)
(1.36844 -0.508587 1.90532e-14)
(1.40108 -0.514511 -1.89384e-14)
(1.42881 -0.529084 2.30026e-15)
(1.44542 -0.533973 1.25349e-14)
(1.5168 -0.568985 1.5217e-14)
(0.150414 -0.865204 -5.77323e-14)
(1.67314 -0.628907 1.50544e-14)
(-0.0916943 -0.411643 -1.04074e-13)
(0.00671132 -0.0740327 -3.55897e-13)
(0.0895331 0.0971493 1.9803e-13)
(0.925806 -0.0430034 2.33756e-14)
(0.24839 0.530298 -2.86279e-20)
(0.660349 -0.197674 0)
(0.436503 -0.139435 0)
(0.360326 -0.113322 -3.75571e-14)
(0.300048 -0.0992401 -9.1027e-14)
(0.268043 -0.0851881 4.33599e-14)
(0.182616 -0.043745 1.87573e-14)
(0.106538 -0.0287447 -6.97976e-14)
(0.0918806 -0.0298187 0)
(0.0543036 -0.0039718 -2.15857e-13)
(-0.0710413 0.0520433 0)
(-0.0384474 -0.0161772 2.27761e-13)
(-0.0996244 0.0330883 -4.28591e-13)
(-0.143752 0.0944553 1.79932e-13)
(-0.192787 0.0877701 6.74669e-14)
(-0.273935 0.106015 5.56845e-14)
(-0.233178 0.0586871 -1.01725e-13)
(-0.20482 0.0722213 0)
(-0.104865 0.0058023 -6.15192e-14)
(-0.0751156 0.0308493 -5.26161e-13)
(0.0985916 -0.1109 0)
(2.47602 -0.665881 -1.57761e-14)
(0.448181 -0.573628 1.93961e-14)
(3.24196 -1.15609 4.36788e-15)
(3.23492 -1.15699 -4.36776e-15)
(3.23562 -1.15581 -9.15875e-15)
(3.24012 -1.15895 -9.3922e-15)
(-0.017565 0.0182672 0)
(-0.160722 0.026156 -2.66301e-12)
(-0.277405 0.0277922 -8.08849e-13)
(-0.398811 0.0275193 -4.53082e-15)
(-0.51743 0.0260011 4.59719e-13)
(-0.627902 0.0236161 1.87016e-16)
(-0.726522 0.0206905 3.33942e-13)
(-0.811207 0.017468 3.01358e-13)
(-0.881082 0.0141722 2.79077e-13)
(-0.936293 0.0110055 -2.63859e-13)
(-0.97777 0.00810807 0)
(-1.00691 0.0055518 -3.01533e-17)
(-1.02535 0.00336862 -2.43158e-13)
(-1.03482 0.00158326 -2.41384e-13)
(-1.03725 0.000238723 2.41113e-13)
(-1.03486 -0.000604724 -2.41435e-13)
(-1.03052 -0.000748387 2.95847e-17)
(-1.02773 -8.96551e-05 2.43146e-13)
(-1.03013 0.00131715 -2.42238e-13)
(-1.04087 0.00334567 -2.3914e-13)
(-1.0626 0.00592396 0)
(-1.09758 0.00896124 4.51119e-13)
(-1.14758 0.0123248 4.30343e-13)
(-1.21353 0.0158022 0)
(-1.29508 0.0190834 0)
(-1.39033 0.0218225 1.76747e-13)
(-1.49593 0.0237138 1.64361e-13)
(-1.60731 0.0245177 -1.53104e-13)
(-1.71895 0.0240659 0)
(-1.82482 0.0223109 0)
(-1.91915 0.0193513 0)
(-1.99694 0.0153832 0)
(-2.05417 0.0106315 0)
(-2.08773 0.00524494 0)
(-2.09462 -0.000841087 -2.38868e-13)
(-2.07071 -0.00811303 -1.20332e-13)
(-2.01115 -0.0165576 -1.23328e-13)
(-1.91091 -0.0263033 -1.29044e-13)
(-1.76462 -0.0374943 0)
(-1.56726 -0.0500808 -1.54418e-13)
(-1.31616 -0.0635666 0)
(-1.01434 -0.0766203 -2.29168e-13)
(-0.675085 -0.0879864 0)
(-0.324014 -0.0964426 0)
(-0.0311374 -0.0648423 0)
(0.182499 -0.0493425 0)
(0.35522 -0.0324672 -6.39036e-13)
(0.468722 -0.019537 6.20956e-17)
(0.540764 -0.0127338 0)
(0.591197 -0.00931653 0)
(0.630022 -0.00731947 -9.55154e-17)
(0.661298 -0.00589878 3.73948e-13)
(0.686769 -0.00474851 0)
(0.707321 -0.00375335 -2.14338e-17)
(0.723497 -0.00285951 0)
(0.735675 -0.00203178 6.7729e-13)
(0.744105 -0.00124271 3.35224e-13)
(0.748917 -0.000461764 -3.33517e-13)
(0.750089 0.000345265 3.33248e-13)
(0.747447 0.00121943 -6.68034e-13)
(0.740682 0.00220721 4.10999e-17)
(0.729221 0.0033626 2.08383e-17)
(0.712199 0.00476598 -8.51451e-17)
(0.688328 0.00653783 3.59659e-13)
(0.655677 0.00886322 0)
(0.611399 0.0120256 -7.80547e-16)
(0.55149 0.016366 4.37832e-13)
(0.470628 0.0222224 0)
(0.36091 0.0308976 -6.53615e-13)
(0.212736 0.0432634 6.01839e-14)
(0.0199265 0.290692 0)
(0.0150979 0.365721 -5.04769e-15)
(0.00902115 0.416694 5.84974e-13)
(0.00228824 0.438625 -1.1368e-12)
(-0.00514031 0.428286 0)
(-0.0129511 0.384409 -1.24823e-12)
(-0.0204145 0.309473 -7.46704e-13)
(-0.0247192 0.21188 4.9129e-20)
(-0.0296736 0.109746 0)
(0.0275204 0.343254 -6.76281e-13)
(0.0165931 0.438703 0)
(0.009721 0.499439 -2.38249e-16)
(0.00403563 0.53344 -4.63663e-13)
(-0.00102253 0.543622 0)
(-0.00592635 0.531219 -4.71473e-13)
(-0.010992 0.496316 5.00189e-13)
(-0.0165519 0.437238 -1.13062e-12)
(-0.0230603 0.351709 1.05951e-14)
(-0.0314869 0.238688 -2.8532e-14)
(0.515308 -0.0332427 0)
(1.1404 -1.1597 4.16518e-14)
(0.77424 -0.00118305 3.12604e-13)
(0.845676 0.00745903 0)
(0.892255 0.0137024 2.95232e-13)
(0.918549 0.0185768 -5.42553e-13)
(0.927005 0.022557 2.69952e-13)
(0.918763 0.0259841 -2.8806e-13)
(0.894402 0.0289302 0)
(0.854419 0.0314282 -1.80461e-14)
(0.799173 0.033509 3.06941e-13)
(0.729105 0.035158 6.67912e-13)
(0.645026 0.0363329 2.33417e-14)
(0.548423 0.0369554 0)
(0.441984 0.0369547 0)
(0.329054 0.0367081 0)
(0.213469 0.0340604 0)
(-0.429051 0.0167908 -5.5702e-13)
(-0.543829 0.00908987 -8.8281e-16)
(-0.580606 0.0066849 8.50443e-13)
(-0.607868 0.00482033 -8.15299e-13)
(-0.627546 0.00331599 3.96003e-13)
(-0.640935 0.00203889 -3.88662e-13)
(-0.648827 0.000888627 3.84731e-13)
(-0.651625 -0.000206479 3.83777e-13)
(-0.649496 -0.00124436 0)
(-0.642537 -0.00230583 0)
(-0.630586 -0.00343181 3.94201e-13)
(-0.613291 -0.00466284 0)
(-0.590122 -0.00604215 -8.38181e-13)
(-0.560356 -0.00762332 -4.40294e-13)
(-0.523049 -0.00946998 0)
(-0.477134 -0.0115579 5.13242e-13)
(-0.421494 -0.0138752 -9.06533e-15)
(-0.353477 -0.0168703 0)
(-0.272162 -0.0211264 5.07766e-20)
(-0.176511 -0.0266197 0)
(0.0468078 0.200363 0)
(-0.0593137 -0.264599 1.23533e-12)
(0.192657 -0.262045 6.49459e-13)
(0.228228 0.325377 0)
(0.290516 0.0328589 0)
(0.378549 0.00325027 0)
(0.553013 0.00305852 3.59891e-13)
(0.758824 0.0166419 -3.08568e-13)
(0.962147 0.0366557 -2.79234e-13)
(1.13916 0.0587899 2.12526e-13)
(1.2748 0.0801445 -1.91997e-13)
(1.36009 0.0989181 -9.08964e-14)
(1.38752 0.114648 1.79888e-13)
(1.34756 0.128604 0)
(1.22628 0.139207 1.23325e-13)
(1.01243 0.146411 1.4547e-13)
(0.69901 0.151669 3.21414e-13)
(0.325379 0.176725 7.60563e-13)
(-0.258723 0.159971 7.06382e-14)
(-0.739387 0.0118295 -2.60174e-13)
(-1.03184 -0.0391062 8.57005e-14)
(-1.20474 -0.0749104 2.52116e-14)
(-1.29462 -0.101146 2.40507e-14)
(-1.29006 -0.126221 0)
(-1.1488 -0.151825 0)
(-0.795769 -0.197931 0)
(0.783568 0.619626 2.02043e-13)
(0.572788 -0.0992913 -1.78397e-14)
(0.47678 -0.147111 -1.5363e-14)
(0.477333 -0.181804 -2.93346e-14)
(0.519648 -0.223626 0)
(0.664863 -0.289408 -9.30852e-15)
(0.756728 -0.292362 4.28614e-14)
(0.820207 -0.327807 -1.70195e-14)
(0.919809 -0.364723 -2.90332e-14)
(0.995332 -0.379346 -1.34615e-14)
(1.07467 -0.416593 2.61158e-14)
(1.13796 -0.437456 -2.12581e-14)
(1.20862 -0.455855 -1.01867e-14)
(1.26069 -0.470904 2.1604e-14)
(1.29584 -0.487686 0)
(1.33648 -0.492819 2.93998e-14)
(1.36235 -0.506884 -1.43143e-14)
(1.39955 -0.514399 1.3482e-14)
(1.42041 -0.528605 2.30406e-15)
(1.44835 -0.535005 -1.25268e-14)
(1.50244 -0.572006 -2.6654e-14)
(1.56902 -0.632186 -1.25082e-14)
(-0.00460603 -0.520533 7.27661e-14)
(0.0474463 -0.163372 1.9124e-13)
(0.103021 0.033278 -2.01229e-13)
(0.30077 0.300545 0)
(0.733199 -0.113752 1.49973e-14)
(0.499571 -0.12435 0)
(0.385758 -0.11505 0)
(0.317227 -0.103161 1.31795e-13)
(0.283041 -0.0911045 -8.64363e-14)
(0.242014 -0.0616332 0)
(0.139636 -0.0360278 -2.95099e-13)
(0.10666 -0.0324314 0)
(0.0855133 -0.0221532 1.60827e-13)
(0.111963 -0.00171491 2.32428e-13)
(-0.0681815 0.0349624 0)
(-0.0849565 0.0337882 2.91855e-13)
(-0.0800566 0.0727602 -9.11717e-14)
(-0.157221 0.07927 8.53086e-14)
(-0.24922 0.10508 0)
(-0.264786 0.0820148 -4.96702e-14)
(-0.189958 0.0655833 3.03982e-14)
(-0.13857 0.00832022 -4.13473e-14)
(-0.0591301 0.0350697 1.93083e-13)
(0.0655654 -0.104504 8.6662e-14)
(0.200393 -0.247698 0)
(3.26161 -1.19516 -4.13566e-15)
(3.23969 -1.14451 2.20549e-15)
(3.24074 -1.14252 1.53046e-14)
(3.24134 -1.13836 1.30498e-14)
(1.8868 -0.864382 6.25832e-15)
(-0.338063 0.0278476 5.25652e-15)
(-0.458837 0.0268884 5.10895e-13)
(-0.573958 0.0248947 -8.13046e-16)
(-0.678856 0.0222039 3.56135e-13)
(-0.770687 0.0191024 -3.16137e-13)
(-0.848009 0.0158155 0)
(-0.910477 0.0125622 2.70744e-13)
(-0.958668 0.00951704 -2.58213e-13)
(-0.993786 0.00678488 3.81372e-18)
(-1.01736 0.00441216 -4.66911e-19)
(-1.03109 0.00242374 4.84109e-13)
(-1.03678 0.00085087 0)
(-1.0365 -0.000260096 2.41144e-13)
(-1.03273 -0.000771765 2.95238e-17)
(-1.0287 -0.000520934 0)
(-1.02806 0.000530768 -2.42959e-13)
(-1.03428 0.00225754 2.41025e-13)
(-1.05021 0.00457221 -2.3664e-13)
(-1.07831 0.00739241 2.29884e-13)
(-1.12062 0.0106134 2.20624e-13)
(-1.17855 0.0140667 -2.09228e-13)
(-1.25243 0.0174888 0)
(-1.34117 0.0205408 0)
(-1.4421 0.0228925 1.70408e-13)
(-1.55123 0.0242652 1.58542e-13)
(-1.66347 0.0244558 -1.48045e-13)
(-1.77298 0.0233484 -1.3913e-13)
(-1.87376 0.0209696 1.31914e-13)
(-1.96039 0.0174787 1.26447e-13)
(-2.02833 0.0130922 2.45152e-13)
(-2.07409 0.0080158 -1.20239e-13)
(-2.09471 0.00229776 1.19434e-13)
(-2.08683 -0.00433 0)
(-2.04569 -0.0121836 -2.43092e-13)
(-1.96645 -0.0212568 0)
(-1.84386 -0.0317153 1.33257e-13)
(-1.67258 -0.0436311 0)
(-1.44843 -0.0567676 1.48959e-19)
(-1.17104 -0.0702695 -4.9125e-17)
(-0.848172 -0.0824502 2.69305e-13)
(-0.497943 -0.0929801 4.31295e-13)
(-0.158473 -0.110015 1.12978e-12)
(0.0880255 -0.0508019 0)
(0.276334 -0.0415608 0)
(0.418661 -0.025137 5.59196e-13)
(0.508449 -0.0155347 0)
(0.567857 -0.0107513 0)
(0.611725 -0.00821014 0)
(0.646465 -0.00656085 0)
(0.674693 -0.00529747 0)
(0.697621 -0.00423412 2.71387e-18)
(0.715929 -0.00329465 0)
(0.730068 -0.00243781 -3.41047e-13)
(0.740347 -0.00163467 -3.36709e-13)
(0.746959 -0.000853507 3.34145e-13)
(0.749969 -5.91692e-05 4.94391e-22)
(0.749256 0.000773544 3.33443e-13)
(0.74461 0.00169643 4.09101e-17)
(0.735584 0.00275957 1.03384e-17)
(0.721473 0.00402734 -3.44712e-13)
(0.701223 0.00559719 1.727e-16)
(0.673253 0.00761904 -3.67285e-13)
(0.635215 0.0103235 0)
(0.583696 0.0140313 0)
(0.51408 0.0190919 0)
(0.420141 0.0258892 5.61528e-13)
(0.290954 0.0376722 0)
(0.022773 0.148612 0)
(0.0215955 0.246228 0)
(0.0177236 0.330824 0)
(0.0121646 0.394578 2.71984e-20)
(0.00571593 0.431518 -2.23357e-15)
(-0.00134069 0.437646 5.68402e-13)
(-0.0090359 0.410471 5.92822e-13)
(-0.0167763 0.35051 6.73198e-13)
(-0.0234665 0.262337 0)
(-0.025125 0.163068 0)
(-0.0211447 0.0640841 0)
(0.0129412 0.47269 0)
(0.00677754 0.519543 -4.72738e-13)
(0.00142102 0.541417 4.59868e-13)
(-0.00346863 0.54019 0)
(-0.00841327 0.516644 4.76538e-13)
(-0.0136673 0.469973 5.31874e-13)
(-0.0196425 0.397843 -4.79127e-15)
(-0.026931 0.298687 -3.85141e-13)
(-0.0367382 0.172329 0)
(0.907749 0.0162736 2.73862e-13)
(0.924904 0.0206591 -1.30379e-21)
(0.924937 0.0243264 2.69952e-13)
(0.908562 0.0275168 1.91317e-20)
(0.87634 0.030232 0)
(0.828682 0.0325203 0)
(0.76595 0.0343891 -2.99229e-13)
(0.688752 0.035811 -2.19893e-14)
(0.598166 0.0367248 -7.99084e-13)
(0.496216 0.0370416 -2.94639e-14)
(0.386236 0.0368325 0)
(0.270668 0.0360128 -8.11504e-13)
(0.159084 0.0323628 0)
(-0.618561 0.00403161 4.01193e-13)
(-0.634967 0.00265607 -3.91867e-13)
(-0.645535 0.00145306 -3.86303e-13)
(-0.65085 0.000336423 3.83866e-13)
(-0.651161 -0.000723656 7.67647e-13)
(-0.646626 -0.0017694 -3.857e-13)
(-0.637203 -0.00285838 0)
(-0.622635 -0.00403182 0)
(-0.602481 -0.00533098 4.11171e-13)
(-0.576117 -0.00680224 4.28444e-13)
(-0.542713 -0.00850851 -9.04607e-13)
(-0.501229 -0.0104914 4.7466e-16)
(-0.450641 -0.0126467 5.39619e-13)
(-0.389176 -0.0153049 4.12973e-20)
(-0.314599 -0.0188544 7.53304e-13)
(-0.226013 -0.0237131 5.28755e-20)
(-0.124528 -0.0296448 7.4504e-13)
(0.331987 -0.643387 0)
(0.202694 0.00508931 0)
(0.654367 0.00866777 3.97264e-13)
(0.862574 0.0261515 -4.45992e-13)
(1.05496 0.0477068 2.85015e-14)
(1.21283 0.06966 1.00383e-13)
(1.32429 0.0899116 -2.32246e-14)
(1.38142 0.107225 -2.2486e-14)
(1.37697 0.121966 2.02645e-13)
(1.29791 0.134337 2.11763e-13)
(1.13145 0.143294 0)
(0.8685 0.148878 9.97776e-14)
(0.509723 0.151302 5.31316e-14)
(0.143003 0.225667 0)
(-0.543307 0.0688181 -5.67945e-13)
(-0.902176 -0.0159766 -2.22408e-13)
(-1.13049 -0.0591623 -2.12218e-13)
(-1.25884 -0.0884002 -7.31729e-14)
(-1.30725 -0.113739 -1.92406e-13)
(-1.23924 -0.138312 -2.00807e-13)
(-1.00755 -0.17018 2.9642e-14)
(0.529439 -0.163599 4.98251e-14)
(0.461366 -0.185174 -2.93418e-14)
(0.484312 -0.190805 4.5483e-14)
(0.591852 -0.272166 2.17822e-14)
(0.720803 -0.294225 -1.71502e-14)
(0.779823 -0.302675 1.86944e-14)
(0.872461 -0.353475 0)
(0.961661 -0.376897 0)
(1.02722 -0.403006 7.09431e-15)
(1.10751 -0.416492 0)
(1.17759 -0.450003 -1.05995e-14)
(1.23438 -0.467751 2.40027e-15)
(1.27452 -0.472368 -1.0742e-14)
(1.32106 -0.492416 -2.94009e-14)
(1.34712 -0.495566 -3.57907e-14)
(1.3837 -0.514259 0)
(1.40777 -0.51762 9.47941e-15)
(1.43729 -0.532067 -2.07384e-14)
(1.47313 -0.55743 0)
(1.53085 -0.594869 4.28844e-14)
(1.59649 -0.637706 7.53466e-15)
(0.00355819 -0.321502 0)
(0.0368094 -0.0469009 -1.59471e-13)
(0.157524 0.153483 1.78127e-21)
(0.677351 0.484519 2.77917e-14)
(0.9176 0.448288 -4.56372e-14)
(0.600945 -0.124945 -3.85653e-14)
(0.423253 -0.129129 0)
(0.350506 -0.103466 0)
(0.297808 -0.0975342 0)
(0.265628 -0.0757281 0)
(0.194998 -0.0365625 -9.4857e-14)
(0.115237 -0.0334581 6.34745e-14)
(0.101286 -0.025759 -3.91081e-13)
(0.0578936 -0.0230196 0)
(0.040111 0.0308866 0)
(-0.0431173 0.0187264 -1.62297e-13)
(-0.0825907 0.0341842 2.59946e-13)
(-0.15141 0.0666009 7.95514e-14)
(-0.189522 0.109333 -6.15437e-14)
(-0.26293 0.10208 9.92511e-14)
(-0.225435 0.0510258 5.13865e-14)
(-0.181308 0.0564594 3.83039e-14)
(-0.0793685 0.0110588 6.26721e-14)
(-0.0617355 -0.0228025 3.31562e-13)
(0.204323 -0.13353 0)
(0.427442 -0.868258 9.62143e-15)
(3.24012 -1.14714 1.2697e-14)
(3.24012 -1.14352 -4.31029e-15)
(3.24175 -1.14117 0)
(3.31225 -1.11779 -1.25413e-14)
(-0.0664431 -0.678368 3.54355e-13)
(0.0235684 0.0970527 -2.20461e-12)
(0.0225908 0.198452 0)
(0.0211134 0.396507 0)
(0.871719 0.0107971 8.85954e-15)
(0.599776 -0.0232726 -7.87438e-13)
(0.813475 0.00353668 0)
(-0.288105 0.0284441 -7.74835e-13)
(-0.59529 0.0056967 0)
(-0.46428 0.0143599 0)
(-0.563553 0.00780713 0)
(0.128256 -0.531334 -2.04138e-13)
(0.0439948 -0.687304 -3.54364e-13)
(0.459142 0.000788593 4.87958e-13)
(0.318307 0.0127385 0)
(0.82039 0.444836 0)
(1.0405 -0.120474 1.22461e-14)
(-0.305066 0.0777766 5.69183e-15)
(0.0551383 0.305358 0)
(-0.429421 0.0776646 5.4149e-13)
(-0.549739 0.0736742 4.28667e-13)
(-0.660983 0.0669621 3.63159e-13)
(-0.759775 0.0586366 1.55742e-16)
(-0.844193 0.0493453 2.89165e-13)
(-0.913394 0.0397852 0)
(-0.967616 0.030585 -2.55055e-13)
(-1.0079 0.0221647 0)
(-1.03571 0.0147325 -2.39932e-13)
(-1.05273 0.00838519 0)
(-1.0607 0.00320884 0)
(-1.06152 -0.000650369 0)
(-1.05748 -0.00285678 -2.36231e-13)
(-1.05147 -0.00294232 -2.89873e-17)
(-1.04681 -0.000676021 0)
(-1.04709 0.00386568 0)
(-1.05576 0.0102667 -1.79964e-18)
(-1.07553 0.0182465 0)
(-1.10869 0.0275209 -4.46893e-13)
(-1.15707 0.037683 2.13551e-13)
(-1.22171 0.0480625 -4.03485e-13)
(-1.30235 0.0576865 -3.77771e-13)
(-1.39708 0.0655437 -1.759e-13)
(-1.50249 0.0707802 -3.99356e-17)
(-1.61398 0.0726996 0)
(-1.72591 0.0708205 -1.42727e-13)
(-1.8321 0.0650646 -1.34672e-13)
(-1.92664 0.0557804 1.28375e-13)
(-2.00444 0.0435346 0)
(-2.06142 0.0290577 2.63153e-20)
(-2.09459 0.0127071 1.19141e-13)
(-2.10116 -0.00580992 1.1894e-13)
(-2.07796 -0.0272821 -1.19789e-13)
(-2.02087 -0.0516879 -5.06574e-20)
(-1.92512 -0.0793116 -1.27889e-13)
(-1.78542 -0.110178 -1.36759e-13)
(-1.59664 -0.143393 3.0225e-13)
(-1.35569 -0.176266 0)
(-1.06439 -0.203287 0)
(-0.73494 -0.216572 2.99142e-13)
(-0.39058 -0.208068 5.00496e-13)
(-0.0697529 -0.108515 0)
(0.13214 -0.114677 1.425e-12)
(0.293026 -0.088733 0)
(0.397109 -0.0565754 5.96868e-13)
(0.464079 -0.0379245 0)
(0.513181 -0.0283727 -4.77578e-13)
(0.552211 -0.0226567 1.08902e-16)
(0.584294 -0.0185185 0)
(0.610774 -0.0151078 0)
(0.632367 -0.0121141 3.9267e-13)
(0.649534 -0.00940339 0)