# Residuals   
# Time        	p             	Ux            	Uy            
0             	N/A	N/A
0.0001        	9.999963e-01	1.000000e+00	1.000000e+00
0.0002        	9.838526e-01	5.805652e-02	3.655624e-02
0.0003        	3.843636e-01	2.052393e-01	1.816465e-01
0.0004        	2.493103e-01	2.141023e-01	1.758498e-01
0.0005        	2.613109e-01	1.766099e-01	1.547924e-01
0.0006        	2.553869e-01	1.471748e-01	1.256944e-01
0.0007        	2.757443e-01	1.168789e-01	9.988112e-02
0.0008        	3.046853e-01	9.021488e-02	7.674771e-02
0.0009        	3.227092e-01	6.569779e-02	5.541606e-02
0.001         	3.447122e-01	4.311271e-02	3.609624e-02
0.0011        	3.843824e-01	2.263329e-02	1.940391e-02
0.0012        	5.245990e-01	8.578428e-03	9.400070e-03
0.0013        	5.365221e-01	2.035385e-02	1.888535e-02
0.0014        	5.021012e-01	3.687559e-02	3.283694e-02
0.0015        	4.924162e-01	5.032228e-02	4.414892e-02
0.0016        	5.043198e-01	5.930693e-02	5.183144e-02
0.0017        	5.207863e-01	6.411730e-02	5.597085e-02
0.0018        	5.230176e-01	6.042372e-02	5.272933e-02
0.0019        	5.135964e-01	4.991935e-02	4.384006e-02
0.002         	5.177182e-01	3.375908e-02	3.035328e-02
0.0021        	5.281876e-01	1.707280e-02	1.772454e-02
0.0022        	5.418110e-01	1.266877e-02	1.399401e-02
0.0023        	5.155340e-01	2.359432e-02	2.033528e-02
0.0024        	5.021140e-01	3.265996e-02	2.749041e-02
0.0025        	4.906365e-01	3.696372e-02	3.112429e-02
0.0026        	4.957699e-01	3.705489e-02	3.115756e-02
0.0027        	5.035251e-01	3.414518e-02	2.839721e-02
0.0028        	4.874638e-01	2.939539e-02	2.386409e-02
0.0029        	4.577048e-01	2.321129e-02	1.841382e-02
0.003         	4.494172e-01	1.655362e-02	1.300399e-02
0.0031        	4.676166e-01	1.011570e-02	8.786718e-03
0.0032        	4.924301e-01	6.535779e-03	7.495922e-03
0.0033        	4.979237e-01	9.494388e-03	1.030225e-02
0.0034        	4.929062e-01	1.331616e-02	1.354527e-02
0.0035        	4.968275e-01	1.609792e-02	1.575061e-02
0.0036        	5.043971e-01	1.709166e-02	1.657757e-02
0.0037        	4.934675e-01	1.663839e-02	1.622485e-02
0.0038        	4.747368e-01	1.474586e-02	1.466481e-02
0.0039        	4.499101e-01	1.172341e-02	1.246540e-02
0.004         	4.302182e-01	8.717721e-03	1.035033e-02
0.0041        	4.261371e-01	6.724916e-03	8.570517e-03
0.0042        	4.062666e-01	6.233456e-03	7.954615e-03
0.0043        	3.975755e-01	8.481295e-03	8.519243e-03
0.0044        	3.960427e-01	1.079159e-02	9.403611e-03
0.0045        	3.969271e-01	1.206574e-02	9.949979e-03
0.0046        	3.910275e-01	1.232773e-02	9.865400e-03
0.0047        	3.801198e-01	1.178508e-02	9.311718e-03
0.0048        	3.652923e-01	1.065761e-02	8.302284e-03
0.0049        	3.441572e-01	8.971726e-03	7.031946e-03
0.005         	3.289515e-01	7.072225e-03	5.801268e-03
0.0051        	3.270775e-01	5.202975e-03	5.060097e-03
0.0052        	3.418915e-01	3.989171e-03	5.196240e-03
0.0053        	3.628342e-01	3.997819e-03	5.836870e-03
0.0054        	3.765422e-01	4.677004e-03	6.500043e-03
0.0055        	3.818048e-01	5.289556e-03	6.989880e-03
0.0056        	3.856371e-01	5.607732e-03	7.210231e-03
0.0057        	4.146274e-01	5.610804e-03	7.228926e-03
0.0058        	3.889605e-01	5.475874e-03	7.029855e-03
0.0059        	3.696871e-01	5.164178e-03	6.675444e-03
0.006         	3.616031e-01	4.749731e-03	6.272434e-03
0.0061        	3.372660e-01	4.393701e-03	5.946174e-03
0.0062        	3.185132e-01	4.299464e-03	5.734317e-03
0.0063        	3.080072e-01	4.699534e-03	5.676773e-03
0.0064        	3.133445e-01	5.263897e-03	5.618557e-03
0.0065        	3.196182e-01	5.600994e-03	5.463361e-03
0.0066        	3.047403e-01	5.596520e-03	5.259335e-03
0.0067        	2.950921e-01	5.404675e-03	5.012759e-03
0.0068        	2.876431e-01	5.068438e-03	4.797718e-03
0.0069        	2.763339e-01	4.655036e-03	4.615348e-03
0.007         	2.621573e-01	4.164352e-03	4.476951e-03
0.0071        	2.512975e-01	3.662721e-03	4.463208e-03
0.0072        	2.528074e-01	3.271687e-03	4.520223e-03
0.0073        	2.530667e-01	3.142256e-03	4.663206e-03
0.0074        	2.562980e-01	3.159014e-03	4.817589e-03
0.0075        	2.576909e-01	3.265451e-03	4.904625e-03
0.0076        	2.557925e-01	3.378166e-03	4.897548e-03
0.0077        	2.521148e-01	3.436430e-03	4.825377e-03
0.0078        	2.430442e-01	3.436809e-03	4.736301e-03
0.0079        	2.352974e-01	3.427217e-03	4.641204e-03
0.008         	2.283873e-01	3.428406e-03	4.521163e-03
0.0081        	2.195665e-01	3.421710e-03	4.382226e-03
0.0082        	2.126614e-01	3.387232e-03	4.255497e-03
0.0083        	2.101101e-01	3.387414e-03	4.173856e-03
0.0084        	2.122633e-01	3.418934e-03	4.110418e-03
0.0085        	2.343307e-01	3.471674e-03	4.043148e-03
0.0086        	2.264527e-01	3.494032e-03	3.977243e-03
0.0087        	2.166945e-01	3.452461e-03	3.918993e-03
0.0088        	2.076959e-01	3.343907e-03	3.874328e-03
0.0089        	1.982783e-01	3.210782e-03	3.845044e-03
0.009         	1.891146e-01	3.067834e-03	3.850107e-03
0.0091        	1.816497e-01	2.925852e-03	3.886078e-03
0.0092        	1.789209e-01	2.795635e-03	3.918118e-03
0.0093        	1.840678e-01	2.699789e-03	3.931767e-03
0.0094        	1.902333e-01	2.655391e-03	3.955392e-03
0.0095        	1.965260e-01	2.655946e-03	3.973738e-03
0.0096        	2.031516e-01	2.676402e-03	3.976358e-03
0.0097        	2.055445e-01	2.698951e-03	3.955488e-03
0.0098        	2.063498e-01	2.736800e-03	3.922789e-03
0.0099        	2.075039e-01	2.781037e-03	3.885834e-03
0.01          	2.113327e-01	2.811669e-03	3.856308e-03
0.0101        	2.205490e-01	2.831960e-03	3.828574e-03
0.0102        	2.252521e-01	2.842428e-03	3.798030e-03
0.0103        	2.219471e-01	2.851430e-03	3.789218e-03
0.0104        	2.162854e-01	2.873122e-03	3.797930e-03
0.0105        	2.120860e-01	2.888577e-03	3.791206e-03
0.0106        	2.079423e-01	2.882153e-03	3.770722e-03
0.0107        	2.013423e-01	2.857113e-03	3.735965e-03
0.0108        	1.949860e-01	2.810083e-03	3.691775e-03
0.0109        	1.945087e-01	2.750635e-03	3.655895e-03
0.011         	1.853994e-01	2.688080e-03	3.636561e-03
0.0111        	1.795225e-01	2.623828e-03	3.621156e-03
0.0112        	1.726185e-01	2.572990e-03	3.617313e-03
0.0113        	1.676539e-01	2.544922e-03	3.620992e-03
0.0114        	1.630994e-01	2.525012e-03	3.629602e-03
0.0115        	1.601519e-01	2.516722e-03	3.639207e-03
0.0116        	1.580797e-01	2.509647e-03	3.640084e-03
0.0117        	1.588666e-01	2.501109e-03	3.627812e-03
0.0118        	1.618818e-01	2.494231e-03	3.607689e-03
0.0119        	1.675831e-01	2.483244e-03	3.566931e-03
0.012         	2.031333e-01	2.474254e-03	3.524191e-03
0.0121        	1.877138e-01	2.471698e-03	3.485343e-03
0.0122        	1.788849e-01	2.471669e-03	3.445680e-03
0.0123        	1.715372e-01	2.474348e-03	3.417852e-03
0.0124        	1.650923e-01	2.472548e-03	3.401056e-03
0.0125        	1.600426e-01	2.469598e-03	3.397463e-03
0.0126        	1.554342e-01	2.468366e-03	3.402927e-03
0.0127        	1.537851e-01	2.469536e-03	3.413580e-03
0.0128        	1.561165e-01	2.470305e-03	3.423237e-03
0.0129        	1.599987e-01	2.452743e-03	3.418998e-03
0.013         	1.650887e-01	2.430539e-03	3.414683e-03
0.0131        	1.759064e-01	2.408589e-03	3.410612e-03
0.0132        	1.875832e-01	2.386134e-03	3.404932e-03
0.0133        	1.890746e-01	2.361323e-03	3.395730e-03
0.0134        	1.836897e-01	2.340923e-03	3.390582e-03
0.0135        	1.771879e-01	2.323473e-03	3.394940e-03
0.0136        	1.700703e-01	2.313054e-03	3.399907e-03
0.0137        	1.631431e-01	2.304518e-03	3.392279e-03
0.0138        	1.568997e-01	2.300997e-03	3.375844e-03
0.0139        	1.515963e-01	2.301068e-03	3.355068e-03
0.014         	1.470736e-01	2.296582e-03	3.327468e-03
0.0141        	1.423153e-01	2.289565e-03	3.290871e-03
0.0142        	1.397241e-01	2.290281e-03	3.248216e-03
0.0143        	1.384769e-01	2.298150e-03	3.210444e-03
0.0144        	1.388358e-01	2.299686e-03	3.180508e-03
0.0145        	1.360666e-01	2.292438e-03	3.166788e-03
0.0146        	1.324519e-01	2.283775e-03	3.155589e-03
0.0147        	1.300589e-01	2.274162e-03	3.144663e-03
0.0148        	1.261417e-01	2.264445e-03	3.134675e-03
0.0149        	1.241191e-01	2.252297e-03	3.122851e-03
0.015         	1.226439e-01	2.234783e-03	3.109388e-03
0.0151        	1.221553e-01	2.220317e-03	3.092913e-03
0.0152        	1.217524e-01	2.205013e-03	3.075955e-03
0.0153        	1.206714e-01	2.184082e-03	3.065072e-03
0.0154        	1.193627e-01	2.169120e-03	3.058312e-03
0.0155        	1.180836e-01	2.160292e-03	3.053606e-03
0.0156        	1.169300e-01	2.156121e-03	3.051594e-03
0.0157        	1.156116e-01	2.154142e-03	3.051648e-03
0.0158        	1.144610e-01	2.154691e-03	3.061633e-03
0.0159        	1.136908e-01	2.150219e-03	3.063310e-03
0.016         	1.134520e-01	2.145580e-03	3.061782e-03
0.0161        	1.146540e-01	2.140107e-03	3.056908e-03
0.0162        	1.152236e-01	2.133680e-03	3.051406e-03
0.0163        	1.175664e-01	2.126443e-03	3.044377e-03
0.0164        	1.221615e-01	2.119727e-03	3.037176e-03
0.0165        	1.293297e-01	2.110901e-03	3.024840e-03
0.0166        	1.345727e-01	2.101727e-03	3.012717e-03
0.0167        	1.358483e-01	2.092446e-03	3.001135e-03
0.0168        	1.348085e-01	2.085785e-03	2.991488e-03
0.0169        	1.332560e-01	2.079900e-03	2.983303e-03
0.017         	1.292518e-01	2.070341e-03	2.972967e-03
0.0171        	1.256456e-01	2.058840e-03	2.960277e-03
0.0172        	1.216384e-01	2.048649e-03	2.948216e-03
0.0173        	1.186702e-01	2.039941e-03	2.937792e-03
0.0174        	1.171298e-01	2.030372e-03	2.927794e-03
0.0175        	1.165965e-01	2.021205e-03	2.916275e-03
0.0176        	1.152939e-01	2.010801e-03	2.903841e-03
0.0177        	1.134746e-01	2.004090e-03	2.890748e-03
0.0178        	1.117341e-01	2.005346e-03	2.880924e-03
0.0179        	1.105523e-01	2.000302e-03	2.868780e-03
0.018         	1.100505e-01	1.994046e-03	2.854917e-03
0.0181        	1.098885e-01	1.986945e-03	2.842362e-03
0.0182        	1.114664e-01	1.979510e-03	2.829115e-03
0.0183        	1.121873e-01	1.973163e-03	2.815937e-03
0.0184        	1.122727e-01	1.966090e-03	2.802174e-03
0.0185        	1.127286e-01	1.957978e-03	2.789141e-03
0.0186        	1.126889e-01	1.949855e-03	2.777926e-03
0.0187        	1.131364e-01	1.942262e-03	2.765902e-03
0.0188        	1.139877e-01	1.934331e-03	2.753453e-03
0.0189        	1.148781e-01	1.926187e-03	2.740893e-03
0.019         	1.166735e-01	1.918284e-03	2.729138e-03
0.0191        	1.186757e-01	1.910688e-03	2.716914e-03
0.0192        	1.200832e-01	1.901637e-03	2.710291e-03
0.0193        	1.193987e-01	1.893079e-03	2.705404e-03
0.0194        	1.184651e-01	1.886483e-03	2.701058e-03
0.0195        	1.190359e-01	1.879177e-03	2.695500e-03
0.0196        	1.205716e-01	1.871948e-03	2.691443e-03
0.0197        	1.234417e-01	1.864449e-03	2.685824e-03
0.0198        	1.388392e-01	1.855567e-03	2.682431e-03
0.0199        	1.266527e-01	1.846832e-03	2.675156e-03
0.02          	1.223291e-01	1.837928e-03	2.666874e-03
0.0201        	1.188698e-01	1.828836e-03	2.659894e-03
0.0202        	1.169375e-01	1.819880e-03	2.652507e-03
0.0203        	1.157464e-01	1.811034e-03	2.644746e-03
0.0204        	1.143506e-01	1.803649e-03	2.636580e-03
0.0205        	1.138057e-01	1.796483e-03	2.628977e-03
0.0206        	1.147309e-01	1.790846e-03	2.619791e-03
0.0207        	1.182574e-01	1.785676e-03	2.608751e-03
0.0208        	1.178392e-01	1.780527e-03	2.596964e-03
0.0209        	1.158305e-01	1.775440e-03	2.586481e-03
0.021         	1.149323e-01	1.770416e-03	2.575164e-03
0.0211        	1.128660e-01	1.767204e-03	2.564298e-03
0.0212        	1.104801e-01	1.762294e-03	2.550957e-03
0.0213        	1.077009e-01	1.755450e-03	2.536210e-03
0.0214        	1.047480e-01	1.748143e-03	2.520693e-03
0.0215        	1.026278e-01	1.740694e-03	2.506395e-03
0.0216        	1.023409e-01	1.732569e-03	2.493142e-03
0.0217        	1.022018e-01	1.724474e-03	2.482081e-03
0.0218        	1.015482e-01	1.716662e-03	2.472528e-03
0.0219        	1.007770e-01	1.709851e-03	2.463429e-03
0.022         	1.003521e-01	1.703184e-03	2.454589e-03
0.0221        	1.008305e-01	1.696621e-03	2.446073e-03
0.0222        	1.063243e-01	1.689786e-03	2.438092e-03
0.0223        	1.044822e-01	1.682541e-03	2.429765e-03
0.0224        	1.017341e-01	1.675628e-03	2.420664e-03
0.0225        	9.941064e-02	1.669082e-03	2.412255e-03
0.0226        	9.702569e-02	1.662408e-03	2.403227e-03
0.0227        	9.471644e-02	1.655773e-03	2.392065e-03
0.0228        	9.311145e-02	1.649458e-03	2.379067e-03
0.0229        	9.759406e-02	1.643343e-03	2.365913e-03
0.023         	9.752307e-02	1.637368e-03	2.352799e-03
0.0231        	9.826241e-02	1.631317e-03	2.340465e-03
0.0232        	9.868415e-02	1.625053e-03	2.330520e-03
0.0233        	9.885789e-02	1.618363e-03	2.321271e-03
0.0234        	9.702016e-02	1.610935e-03	2.312384e-03
0.0235        	9.360937e-02	1.603017e-03	2.304404e-03
0.0236        	9.166437e-02	1.594422e-03	2.297506e-03
0.0237        	9.136345e-02	1.585513e-03	2.291721e-03
0.0238        	9.046547e-02	1.576810e-03	2.286388e-03
0.0239        	8.914088e-02	1.567914e-03	2.281290e-03
0.024         	8.782576e-02	1.559053e-03	2.276564e-03
0.0241        	8.747211e-02	1.550108e-03	2.272387e-03
0.0242        	8.700518e-02	1.541010e-03	2.268420e-03
0.0243        	8.641172e-02	1.531971e-03	2.263710e-03
0.0244        	8.597511e-02	1.523188e-03	2.258566e-03
0.0245        	8.581516e-02	1.514565e-03	2.252717e-03
0.0246        	8.609890e-02	1.506300e-03	2.246019e-03
0.0247        	8.635915e-02	1.498578e-03	2.238648e-03
0.0248        	8.688855e-02	1.491692e-03	2.230001e-03
0.0249        	8.755321e-02	1.484959e-03	2.220159e-03
0.025         	8.870594e-02	1.478559e-03	2.210559e-03
0.0251        	9.040719e-02	1.472105e-03	2.200224e-03
0.0252        	9.509400e-02	1.465517e-03	2.189626e-03
0.0253        	9.439115e-02	1.459043e-03	2.178457e-03
0.0254        	9.182026e-02	1.452790e-03	2.167260e-03
0.0255        	9.062095e-02	1.446890e-03	2.156472e-03
0.0256        	9.000634e-02	1.441809e-03	2.146339e-03
0.0257        	8.962207e-02	1.437039e-03	2.136019e-03
0.0258        	8.935039e-02	1.432229e-03	2.126314e-03
0.0259        	8.888392e-02	1.427430e-03	2.117124e-03
0.026         	8.818672e-02	1.422670e-03	2.107957e-03
0.0261        	8.741807e-02	1.418281e-03	2.099385e-03
0.0262        	8.619316e-02	1.413831e-03	2.090624e-03
0.0263        	8.482784e-02	1.409243e-03	2.081680e-03
0.0264        	8.307413e-02	1.403993e-03	2.072789e-03
0.0265        	8.178334e-02	1.398574e-03	2.063529e-03
0.0266        	8.087286e-02	1.393114e-03	2.053397e-03
0.0267        	8.034552e-02	1.387808e-03	2.042778e-03
0.0268        	8.062675e-02	1.382465e-03	2.031809e-03
0.0269        	8.172134e-02	1.376938e-03	2.021081e-03
0.027         	8.214655e-02	1.371269e-03	2.010043e-03
0.0271        	8.259035e-02	1.365873e-03	1.998730e-03
0.0272        	8.288685e-02	1.360442e-03	1.987135e-03
0.0273        	8.298480e-02	1.354932e-03	1.976246e-03
0.0274        	8.023420e-02	1.349599e-03	1.966325e-03
0.0275        	7.766510e-02	1.344658e-03	1.956468e-03
0.0276        	7.597737e-02	1.340258e-03	1.946431e-03
0.0277        	7.499519e-02	1.335841e-03	1.936595e-03
0.0278        	7.492482e-02	1.331714e-03	1.926984e-03
0.0279        	7.564154e-02	1.327850e-03	1.917685e-03
0.028         	7.616485e-02	1.323764e-03	1.908673e-03
0.0281        	7.624934e-02	1.319991e-03	1.899752e-03
0.0282        	7.608801e-02	1.316035e-03	1.891259e-03
0.0283        	7.593992e-02	1.312038e-03	1.882880e-03
0.0284        	7.587249e-02	1.308092e-03	1.875409e-03
0.0285        	7.556768e-02	1.303833e-03	1.868468e-03
0.0286        	7.473588e-02	1.299248e-03	1.861781e-03
0.0287        	7.396015e-02	1.294599e-03	1.855247e-03
0.0288        	7.358470e-02	1.289570e-03	1.848964e-03
0.0289        	7.359099e-02	1.284446e-03	1.843042e-03
0.029         	7.325141e-02	1.279531e-03	1.836704e-03
0.0291        	7.303167e-02	1.274727e-03	1.830274e-03
0.0292        	7.292043e-02	1.269817e-03	1.823511e-03
0.0293        	7.275184e-02	1.264750e-03	1.816376e-03
0.0294        	7.246264e-02	1.259982e-03	1.808849e-03
0.0295        	7.209510e-02	1.255267e-03	1.801322e-03
0.0296        	7.171103e-02	1.250584e-03	1.793704e-03
0.0297        	7.137704e-02	1.246062e-03	1.786272e-03
0.0298        	7.112754e-02	1.241529e-03	1.779058e-03
0.0299        	7.088214e-02	1.236882e-03	1.771760e-03
0.03          	7.066025e-02	1.232342e-03	1.764430e-03
0.0301        	7.062233e-02	1.227995e-03	1.757277e-03
0.0302        	7.066533e-02	1.223876e-03	1.750817e-03
0.0303        	7.073415e-02	1.219920e-03	1.744385e-03
0.0304        	7.080414e-02	1.215949e-03	1.737929e-03
0.0305        	7.104073e-02	1.212067e-03	1.731473e-03
0.0306        	7.136706e-02	1.208324e-03	1.725246e-03
0.0307        	7.187940e-02	1.204540e-03	1.719132e-03
0.0308        	7.264908e-02	1.200619e-03	1.713274e-03
0.0309        	7.390253e-02	1.196570e-03	1.707512e-03
0.031         	7.465577e-02	1.192402e-03	1.701733e-03
0.0311        	7.468660e-02	1.188308e-03	1.696182e-03
0.0312        	7.423353e-02	1.184125e-03	1.690761e-03
0.0313        	7.361793e-02	1.179807e-03	1.685486e-03
0.0314        	7.287080e-02	1.175363e-03	1.679846e-03
0.0315        	7.206302e-02	1.170925e-03	1.673813e-03
0.0316        	7.128507e-02	1.166469e-03	1.667461e-03
0.0317        	7.066290e-02	1.162486e-03	1.660660e-03
0.0318        	7.050459e-02	1.158509e-03	1.653465e-03
0.0319        	7.052088e-02	1.154618e-03	1.645679e-03
0.032         	7.073694e-02	1.150620e-03	1.637922e-03
0.0321        	7.149149e-02	1.146583e-03	1.630613e-03
0.0322        	7.384639e-02	1.142568e-03	1.623557e-03
0.0323        	8.619915e-02	1.137965e-03	1.616905e-03
0.0324        	8.441697e-02	1.133653e-03	1.610933e-03
0.0325        	7.822007e-02	1.129658e-03	1.604701e-03
0.0326        	7.534418e-02	1.125807e-03	1.598714e-03
0.0327        	7.256146e-02	1.122837e-03	1.591975e-03
0.0328        	7.049957e-02	1.119806e-03	1.585339e-03
0.0329        	6.885848e-02	1.116314e-03	1.579571e-03
0.033         	6.774471e-02	1.113319e-03	1.573449e-03
0.0331        	6.729152e-02	1.110519e-03	1.567790e-03
0.0332        	6.723809e-02	1.107373e-03	1.563083e-03
0.0333        	6.770425e-02	1.104316e-03	1.557866e-03
0.0334        	6.810041e-02	1.100964e-03	1.553799e-03
0.0335        	6.832695e-02	1.097519e-03	1.549259e-03
0.0336        	6.872156e-02	1.093857e-03	1.544833e-03
0.0337        	6.865394e-02	1.089921e-03	1.540728e-03
0.0338        	6.866647e-02	1.085827e-03	1.536944e-03
0.0339        	6.610081e-02	1.081958e-03	1.532807e-03
0.034         	6.519707e-02	1.077984e-03	1.528967e-03
0.0341        	6.458330e-02	1.073956e-03	1.525031e-03
0.0342        	6.411960e-02	1.069841e-03	1.520830e-03
0.0343        	6.364869e-02	1.065773e-03	1.516292e-03
0.0344        	6.355172e-02	1.061768e-03	1.511308e-03
0.0345        	6.326914e-02	1.057788e-03	1.506109e-03
0.0346        	6.292263e-02	1.053825e-03	1.500664e-03
0.0347        	6.255867e-02	1.050019e-03	1.494971e-03
0.0348        	6.233653e-02	1.046341e-03	1.489127e-03
0.0349        	6.201674e-02	1.042719e-03	1.483290e-03
0.035         	6.155623e-02	1.039211e-03	1.477570e-03
0.0351        	6.089861e-02	1.035860e-03	1.471972e-03
0.0352        	6.011119e-02	1.032570e-03	1.466500e-03
0.0353        	5.982445e-02	1.029449e-03	1.461334e-03
0.0354        	5.953943e-02	1.026390e-03	1.456538e-03
0.0355        	5.949882e-02	1.023409e-03	1.452075e-03
0.0356        	5.944626e-02	1.020375e-03	1.447953e-03
0.0357        	5.926334e-02	1.017253e-03	1.444020e-03
0.0358        	5.928288e-02	1.014137e-03	1.440166e-03
0.0359        	5.964882e-02	1.011075e-03	1.436365e-03
0.036         	6.002230e-02	1.008169e-03	1.432736e-03
0.0361        	6.039670e-02	1.005354e-03	1.429200e-03
0.0362        	6.106214e-02	1.002571e-03	1.425612e-03
0.0363        	6.193127e-02	9.997402e-04	1.421890e-03
0.0364        	6.168103e-02	9.970454e-04	1.418029e-03
0.0365        	6.091406e-02	9.943671e-04	1.414111e-03
0.0366        	6.037269e-02	9.917057e-04	1.410241e-03
0.0367        	5.991655e-02	9.890537e-04	1.406136e-03
0.0368        	5.939733e-02	9.863387e-04	1.401797e-03
0.0369        	5.895397e-02	9.835655e-04	1.397156e-03
0.037         	5.869592e-02	9.807629e-04	1.392246e-03
0.0371        	5.868069e-02	9.779128e-04	1.387088e-03
0.0372        	5.874432e-02	9.750662e-04	1.381833e-03
0.0373        	5.860897e-02	9.721857e-04	1.376735e-03
0.0374        	5.842319e-02	9.693504e-04	1.371808e-03
0.0375        	5.816212e-02	9.665258e-04	1.366924e-03
0.0376        	5.776379e-02	9.637138e-04	1.362115e-03
0.0377        	5.743402e-02	9.609891e-04	1.357374e-03
0.0378        	5.715511e-02	9.583439e-04	1.352707e-03
0.0379        	5.718948e-02	9.557194e-04	1.348205e-03
0.038         	5.725310e-02	9.530928e-04	1.343822e-03
0.0381        	5.739331e-02	9.504944e-04	1.339529e-03
0.0382        	5.756084e-02	9.478952e-04	1.335268e-03
0.0383        	5.782666e-02	9.453298e-04	1.331273e-03
0.0384        	5.850775e-02	9.428511e-04	1.327313e-03
0.0385        	5.950364e-02	9.404557e-04	1.323460e-03
0.0386        	6.121280e-02	9.380844e-04	1.319787e-03
0.0387        	6.395638e-02	9.357389e-04	1.316442e-03
0.0388        	7.024378e-02	9.334609e-04	1.313333e-03
0.0389        	1.080829e-01	9.313096e-04	1.310207e-03
0.039         	8.740237e-02	9.291753e-04	1.307078e-03
0.0391        	8.164489e-02	9.271363e-04	1.304202e-03
0.0392        	7.732700e-02	9.252429e-04	1.301122e-03
0.0393        	7.389844e-02	9.233186e-04	1.297375e-03
0.0394        	6.921946e-02	9.213235e-04	1.293208e-03
0.0395        	6.535932e-02	9.192861e-04	1.288798e-03
0.0396        	6.290573e-02	9.172926e-04	1.284238e-03
0.0397        	6.163628e-02	9.153068e-04	1.279630e-03
0.0398        	6.072521e-02	9.132956e-04	1.275014e-03
0.0399        	6.083535e-02	9.112729e-04	1.270545e-03
0.04          	6.081065e-02	9.091752e-04	1.266166e-03
0.0401        	6.058258e-02	9.069652e-04	1.262022e-03
0.0402        	6.071874e-02	9.047454e-04	1.257879e-03
0.0403        	6.067552e-02	9.024768e-04	1.253903e-03
0.0404        	6.056464e-02	9.002377e-04	1.250130e-03
0.0405        	6.048220e-02	8.979650e-04	1.246583e-03
0.0406        	6.042670e-02	8.956441e-04	1.243090e-03
0.0407        	6.009225e-02	8.933834e-04	1.239572e-03
0.0408        	5.959976e-02	8.912535e-04	1.235966e-03
0.0409        	5.935673e-02	8.891854e-04	1.232185e-03
0.041         	5.916337e-02	8.871393e-04	1.228342e-03
0.0411        	5.882172e-02	8.848770e-04	1.224733e-03
0.0412        	5.855604e-02	8.828356e-04	1.221035e-03
0.0413        	5.856623e-02	8.809880e-04	1.217327e-03
0.0414        	5.895778e-02	8.792595e-04	1.213291e-03
0.0415        	5.913195e-02	8.775632e-04	1.209315e-03
0.0416        	5.942613e-02	8.758669e-04	1.205523e-03
0.0417        	5.931309e-02	8.741904e-04	1.201842e-03
0.0418        	5.872852e-02	8.725609e-04	1.198197e-03
0.0419        	5.824009e-02	8.709493e-04	1.194700e-03
0.042         	5.783493e-02	8.692635e-04	1.191436e-03
0.0421        	5.745959e-02	8.674678e-04	1.188266e-03
0.0422        	5.766729e-02	8.655010e-04	1.185291e-03
0.0423        	5.879501e-02	8.634297e-04	1.182543e-03
0.0424        	5.860661e-02	8.612807e-04	1.180052e-03
0.0425        	5.777670e-02	8.590894e-04	1.177622e-03
0.0426        	5.692954e-02	8.570455e-04	1.175291e-03
0.0427        	5.613591e-02	8.551197e-04	1.172884e-03
0.0428        	5.570638e-02	8.531752e-04	1.170254e-03
0.0429        	5.664738e-02	8.512669e-04	1.167463e-03
0.043         	5.782792e-02	8.493897e-04	1.164541e-03
0.0431        	5.803734e-02	8.474591e-04	1.161468e-03
0.0432        	5.827987e-02	8.456404e-04	1.158330e-03
0.0433        	5.844966e-02	8.439005e-04	1.155159e-03
0.0434        	5.882119e-02	8.422473e-04	1.151879e-03
0.0435        	6.012634e-02	8.406867e-04	1.148695e-03
0.0436        	6.324915e-02	8.391213e-04	1.145723e-03
0.0437        	6.206684e-02	8.376493e-04	1.142774e-03
0.0438        	6.160498e-02	8.362627e-04	1.140044e-03
0.0439        	6.081563e-02	8.349766e-04	1.137480e-03
0.044         	6.009811e-02	8.336783e-04	1.134754e-03
0.0441        	5.969888e-02	8.322712e-04	1.131992e-03
0.0442        	5.984722e-02	8.307137e-04	1.129211e-03
0.0443        	5.983866e-02	8.290414e-04	1.126422e-03
0.0444        	5.982019e-02	8.272002e-04	1.123631e-03
0.0445        	5.950365e-02	8.252204e-04	1.120773e-03
0.0446        	5.816775e-02	8.232250e-04	1.118074e-03
0.0447        	5.696179e-02	8.212352e-04	1.115475e-03
0.0448        	5.632415e-02	8.191686e-04	1.112938e-03
0.0449        	5.583880e-02	8.170881e-04	1.110351e-03
0.045         	5.552645e-02	8.150237e-04	1.107751e-03
0.0451        	5.586183e-02	8.130122e-04	1.105121e-03
0.0452        	5.654217e-02	8.110613e-04	1.102448e-03
0.0453        	5.793866e-02	8.092076e-04	1.099765e-03
0.0454        	6.042022e-02	8.075675e-04	1.097245e-03
0.0455        	6.141994e-02	8.060948e-04	1.094733e-03
0.0456        	6.086512e-02	8.048224e-04	1.092249e-03
0.0457        	6.043440e-02	8.037349e-04	1.090166e-03
0.0458        	6.133564e-02	8.027546e-04	1.088232e-03
0.0459        	6.533089e-02	8.018909e-04	1.086295e-03
0.046         	8.202536e-02	8.010943e-04	1.084290e-03
0.0461        	7.520140e-02	8.002679e-04	1.081549e-03
0.0462        	7.052957e-02	7.994310e-04	1.078741e-03
0.0463        	6.695519e-02	7.984403e-04	1.076827e-03
0.0464        	6.420907e-02	7.972552e-04	1.074630e-03
0.0465        	6.114603e-02	7.959327e-04	1.072389e-03
0.0466        	5.825637e-02	7.945317e-04	1.070130e-03
0.0467        	5.702190e-02	7.929497e-04	1.067838e-03
0.0468        	5.652081e-02	7.913018e-04	1.065562e-03
0.0469        	5.642028e-02	7.895458e-04	1.063271e-03
0.047         	5.610188e-02	7.877361e-04	1.061040e-03
0.0471        	5.612279e-02	7.859625e-04	1.058834e-03
0.0472        	5.602367e-02	7.841687e-04	1.056600e-03
0.0473        	5.603450e-02	7.821750e-04	1.054710e-03
0.0474        	5.583115e-02	7.803246e-04	1.052747e-03
0.0475        	5.550312e-02	7.787033e-04	1.050349e-03
0.0476        	5.506588e-02	7.770985e-04	1.047852e-03
0.0477        	5.503459e-02	7.755280e-04	1.045473e-03
0.0478        	5.517395e-02	7.740868e-04	1.043039e-03
0.0479        	5.513021e-02	7.727752e-04	1.040473e-03
0.048         	5.520883e-02	7.715887e-04	1.037922e-03
0.0481        	5.526466e-02	7.704837e-04	1.035370e-03
0.0482        	5.516099e-02	7.694648e-04	1.032813e-03
0.0483        	5.518241e-02	7.685904e-04	1.030253e-03
0.0484        	5.512628e-02	7.677753e-04	1.027671e-03
0.0485        	5.483947e-02	7.670076e-04	1.025125e-03
0.0486        	5.434765e-02	7.662370e-04	1.022578e-03
0.0487        	5.416875e-02	7.655053e-04	1.020034e-03
0.0488        	5.356290e-02	7.647192e-04	1.017494e-03
0.0489        	5.262872e-02	7.637987e-04	1.015118e-03
0.049         	5.187415e-02	7.627151e-04	1.012857e-03
0.0491        	5.115463e-02	7.614846e-04	1.010718e-03
0.0492        	5.041718e-02	7.601939e-04	1.008686e-03
0.0493        	4.972723e-02	7.588272e-04	1.006706e-03
0.0494        	4.934773e-02	7.573649e-04	1.004754e-03
0.0495        	4.920272e-02	7.558563e-04	1.002845e-03
0.0496        	4.905687e-02	7.544135e-04	1.001005e-03
0.0497        	4.864835e-02	7.528747e-04	9.995152e-04
0.0498        	4.830896e-02	7.513775e-04	9.981138e-04
0.0499        	4.809764e-02	7.500540e-04	9.963419e-04
0.05          	4.772324e-02	7.488095e-04	9.944441e-04
0.0501        	4.720245e-02	7.476239e-04	9.924602e-04
0.0502        	4.662497e-02	7.465159e-04	9.904600e-04
0.0503        	4.621288e-02	7.454585e-04	9.883441e-04
0.0504        	4.625213e-02	7.444739e-04	9.861484e-04
0.0505        	4.663162e-02	7.435565e-04	9.839580e-04
0.0506        	4.715174e-02	7.426986e-04	9.817177e-04
0.0507        	4.767952e-02	7.419276e-04	9.794551e-04
0.0508        	4.814057e-02	7.412413e-04	9.772481e-04
0.0509        	4.854183e-02	7.405628e-04	9.751441e-04
0.051         	4.861694e-02	7.399182e-04	9.732131e-04
0.0511        	4.836596e-02	7.392719e-04	9.714249e-04
0.0512        	4.824659e-02	7.385679e-04	9.696913e-04
0.0513        	4.879749e-02	7.377612e-04	9.679247e-04
0.0514        	4.894062e-02	7.368005e-04	9.660987e-04
0.0515        	4.868580e-02	7.356264e-04	9.643081e-04
0.0516        	4.829581e-02	7.342521e-04	9.624564e-04
0.0517        	4.769694e-02	7.327478e-04	9.605586e-04
0.0518        	4.802331e-02	7.312565e-04	9.586315e-04
0.0519        	4.822909e-02	7.297238e-04	9.566245e-04
0.052         	4.772695e-02	7.282055e-04	9.545782e-04
0.0521        	4.710096e-02	7.267104e-04	9.524963e-04
0.0522        	4.664675e-02	7.252786e-04	9.504236e-04
0.0523        	4.615279e-02	7.239220e-04	9.484017e-04
0.0524        	4.593735e-02	7.225954e-04	9.463794e-04
0.0525        	4.592228e-02	7.211483e-04	9.447168e-04
0.0526        	4.604723e-02	7.197951e-04	9.431621e-04
0.0527        	4.594261e-02	7.187503e-04	9.412660e-04
0.0528        	4.589728e-02	7.178497e-04	9.393491e-04
0.0529        	4.585315e-02	7.170461e-04	9.375624e-04
0.053         	4.650107e-02	7.163466e-04	9.358948e-04
0.0531        	4.747302e-02	7.157355e-04	9.344619e-04
0.0532        	4.839666e-02	7.151792e-04	9.330533e-04
0.0533        	4.873721e-02	7.146400e-04	9.316586e-04
0.0534        	4.842906e-02	7.140953e-04	9.303159e-04
0.0535        	4.834639e-02	7.135994e-04	9.292087e-04
0.0536        	4.848589e-02	7.130005e-04	9.281781e-04
0.0537        	4.810632e-02	7.122280e-04	9.271087e-04
0.0538        	4.758071e-02	7.112559e-04	9.259950e-04
0.0539        	4.739022e-02	7.100016e-04	9.247349e-04
0.054         	4.780414e-02	7.085179e-04	9.234833e-04
0.0541        	4.795711e-02	7.069493e-04	9.221749e-04
0.0542        	4.737735e-02	7.053283e-04	9.208531e-04
0.0543        	4.657581e-02	7.037462e-04	9.194755e-04
0.0544        	4.783115e-02	7.021223e-04	9.184204e-04
0.0545        	4.747074e-02	7.006367e-04	9.173724e-04
0.0546        	4.708919e-02	6.992733e-04	9.162717e-04
0.0547        	4.678920e-02	6.981178e-04	9.149430e-04
0.0548        	4.659222e-02	6.971144e-04	9.133809e-04
0.0549        	4.605537e-02	6.962977e-04	9.116629e-04
0.055         	4.658166e-02	6.956265e-04	9.097714e-04
0.0551        	4.685042e-02	6.950920e-04	9.078970e-04
0.0552        	4.676135e-02	6.946997e-04	9.061346e-04
0.0553        	4.744171e-02	6.944050e-04	9.043765e-04